LAMMPS (18 Jun 2019)
ERROR on proc 0: Cannot open input script ~/mylammps/examples/colloid/in.colloid (../input.cpp:272)
Last command: (unknown)
Total wall time: 0:00:00
