read_data	${fname}
read_data	PE_nc10_cl1000.dat
  orthogonal box = (0 0 0) to (80.0586 80.0586 80.0586)
  1 by 1 by 1 MPI processor grid
  reading atoms ...
  10000 atoms
  scanning bonds ...
  1 = max bonds/atom
  scanning angles ...
  1 = max angles/atom
  scanning dihedrals ...
  1 = max dihedrals/atom
  reading bonds ...
  9990 bonds
  reading angles ...
  9980 angles
  reading dihedrals ...
  9970 dihedrals
  2 = max # of 1-2 neighbors
  2 = max # of 1-3 neighbors
  4 = max # of 1-4 neighbors
  6 = max # of special neighbors
  special bonds CPU = 0.00285006 secs
  read_data CPU = 0.035547 secs

# Dreiding potential information
neighbor	0.4 bin
neigh_modify	every 10 one 10000
bond_style      harmonic
bond_coeff	1 350 1.53
angle_style     harmonic
angle_coeff	1 60 109.5
dihedral_style	multi/harmonic
dihedral_coeff	1 1.73 -4.49 0.776 6.99 0.0
pair_style	lj/cut 10.5
pair_coeff	1 1 0.112 4.01 10.5

#####################################################
# Equilibration Stage 1 (Langevin dynamics at 500 K)
velocity 	all create 500.0 1231
fix		1 all nve/limit 0.05
fix		2 all langevin 500.0 500.0 10.0 904297
thermo_style	custom step temp press
thermo          100
timestep	1
run		10000
Neighbor list info ...
  update every 10 steps, delay 10 steps, check yes
  max neighbors/atom: 10000, page size: 100000
  master list distance cutoff = 10.9
  ghost atom cutoff = 10.9
  binsize = 5.45, bins = 15 15 15
  1 neighbor lists, perpetual/occasional/extra = 1 0 0
  (1) pair lj/cut, perpetual
      attributes: half, newton on
      pair build: half/bin/newton
      stencil: half/bin/3d/newton
      bin: standard
WARNING: Inconsistent image flags (../domain.cpp:784)
Per MPI rank memory allocation (min/avg/max) = 18.51 | 18.51 | 18.51 Mbytes
Step Temp Press 
       0          500 1.8475472e+08 
     100    810.18213     67833.12 
     200    557.64949    39410.847 
     300    527.68462    28726.514 
     400    511.36469    22834.291 
     500     513.4912    19010.281 
     600    508.24463    16498.896 
     700    496.01334    14314.538 
     800     497.6119    12930.567 
     900    498.92756    12269.401 
    1000    502.06566    10508.875 
    1100    503.17859    9893.8076 
    1200    501.17648     9549.066 
    1300    497.21848    8625.3346 
    1400    497.01635    8317.9967 
    1500     507.4147    7795.0235 
    1600    506.71502    7594.4048 
    1700    502.69092    7586.5075 
    1800    503.28886    7018.7118 
    1900    497.19872    6451.5828 
    2000    510.78541    6609.4811 
    2100    500.02132    6087.5293 
    2200    502.08914    5942.2214 
    2300    509.91446    5585.5994 
    2400    500.39736    5288.3075 
    2500    499.15359    5533.7303 
    2600    498.39366    4848.4201 
    2700    495.33946    5265.5459 
    2800    498.57576    4709.4439 
    2900    503.76581    4619.2695 
    3000    499.37909    4500.1131 
    3100    498.46719    4339.8924 
    3200    499.13039    4406.2777 
    3300    497.61467    4143.1426 
    3400    498.77819    3857.8708 
    3500    499.05904    4112.3826 
    3600     495.5989    3692.3025 
    3700    504.22967    3823.5158 
    3800    498.84645    3523.3963 
    3900    504.59784     3668.084 
    4000    492.34646    3345.4095 
    4100    498.34813    3384.4873 
    4200    504.14437    3475.3865 
    4300    499.69183    3461.8774 
    4400    502.75845    2885.1341 
    4500    507.06656    3139.8234 
    4600    502.06095    3159.9252 
    4700    502.78922    2814.7282 
    4800    497.51877    2913.1606 
    4900    496.37401    2857.3795 
    5000    496.29219    2816.7411 
    5100    496.93274     3063.162 
    5200    499.92042    2616.6043 
    5300    493.60802    2681.6016 
    5400    501.99517    2582.3504 
    5500    502.56746    2783.0759 
    5600    505.46077    2379.7562 
    5700      503.328    2504.9118 
    5800    500.86004    2139.3554 
    5900    498.63763    2669.6255 
    6000    508.81452      2634.15 
    6100    495.22511    2523.7206 
    6200    502.50621    2222.4628 
    6300    500.57606    2379.6109 
    6400     497.4344    2623.1112 
    6500    510.94739    2229.1587 
    6600    495.57262    2223.6058 
    6700    506.15347    2223.1902 
    6800    497.36778    2612.1977 
    6900    500.36557    2222.1992 
    7000     502.6358    2285.5554 
    7100    490.85954    2035.8078 
    7200    500.33755    2445.1857 
    7300     492.7797    1937.5681 
    7400    507.05804    1992.4927 
    7500    496.28065    1967.9114 
    7600    505.47388    1899.1072 
    7700    499.12543    1790.5642 
    7800     499.0664    2016.4168 
    7900    498.98726    2062.0689 
    8000    507.27276     2092.138 
    8100    503.62552    1810.2893 
    8200    500.20983    1698.3437 
    8300    494.35405    1780.1619 
    8400    500.84025    1842.2312 
    8500    501.92499    1755.8896 
    8600    493.35438    1788.1924 
    8700     495.0151     1769.583 
    8800    506.75304    2101.0797 
    8900    499.37373    1695.9365 
    9000    501.62594    1880.2959 
    9100    500.11485    1630.9048 
    9200    498.13224    1757.2413 
    9300    494.21508    1463.8956 
    9400    499.01547    1387.4844 
    9500    498.62806    1551.5263 
    9600    500.96201    1527.4565 
    9700     501.1989    1881.6373 
    9800     501.0748    1547.3618 
    9900    499.64426     1626.409 
   10000    499.69714    1403.8204 
Loop time of 110.352 on 1 procs for 10000 steps with 10000 atoms

Performance: 7.830 ns/day, 3.065 hours/ns, 90.619 timesteps/s
97.7% CPU use with 1 MPI tasks x no OpenMP threads

MPI task timing breakdown:
Section |  min time  |  avg time  |  max time  |%varavg| %total
---------------------------------------------------------------
Pair    | 73.413     | 73.413     | 73.413     |   0.0 | 66.53
Bond    | 14.708     | 14.708     | 14.708     |   0.0 | 13.33
Neigh   | 18.558     | 18.558     | 18.558     |   0.0 | 16.82
Comm    | 0.90521    | 0.90521    | 0.90521    |   0.0 |  0.82
Output  | 0.0036201  | 0.0036201  | 0.0036201  |   0.0 |  0.00
Modify  | 2.5397     | 2.5397     | 2.5397     |   0.0 |  2.30
Other   |            | 0.2243     |            |       |  0.20

Nlocal:    10000 ave 10000 max 10000 min
Histogram: 1 0 0 0 0 0 0 0 0 0
Nghost:    12753 ave 12753 max 12753 min
Histogram: 1 0 0 0 0 0 0 0 0 0
Neighs:    717331 ave 717331 max 717331 min
Histogram: 1 0 0 0 0 0 0 0 0 0

Total # of neighbors = 717331
Ave neighs/atom = 71.7331
Ave special neighs/atom = 5.988
Neighbor list builds = 820
Dangerous builds = 640
unfix 1
unfix 2
write_restart 	restart.${simname}.dreiding1
write_restart 	restart.PE_nc10_cl1000.dreiding1

#####################################################
# Equilibration Stage 2 (NPT dynamics at 500 K)
fix		1 all npt temp 500.0 500.0 50 iso 0 0 1000 drag 2
fix  		2 all momentum 1 linear 1 1 1
thermo_style	custom step temp press
thermo          100
timestep	0.5
reset_timestep	0
run		50000
WARNING: Inconsistent image flags (../domain.cpp:784)
Per MPI rank memory allocation (min/avg/max) = 18.51 | 18.51 | 18.51 Mbytes
Step Temp Press 
       0    499.69714    1403.8204 
     100    501.21501    1315.4003 
     200    505.39005    1220.5101 
     300    506.72486    879.14385 
     400    507.81782    912.04793 
     500    510.85619    588.88482 
     600    505.84992    621.39186 
     700    504.22321    177.92697 
     800    509.31544    360.72278 
     900    507.71387    106.78606 
    1000     507.7786    102.94521 
    1100    501.51425    78.390728 
    1200    506.01444    146.57155 
    1300    503.98707    7.2900581 
    1400    498.28506    42.212372 
    1500    501.09961    139.83438 
    1600    501.11455    -239.8687 
    1700    501.54729    87.013804 
    1800    499.38698   -64.929886 
    1900     500.6992   -164.62183 
    2000    505.24499    87.855673 
    2100    502.86213   -160.71279 
    2200    503.30081   -95.424996 
    2300    501.88515    121.44161 
    2400    499.85471    18.687698 
    2500    501.16618   -102.53761 
    2600    504.66881   -62.794986 
    2700    495.35841   -46.093245 
    2800    496.77885   -187.03398 
    2900    502.95729    -125.5787 
    3000     496.6466   -74.704722 
    3100     496.2691    21.207494 
    3200    501.07356    -34.95068 
    3300    497.94025    68.009583 
    3400    499.96254   -171.40008 
    3500    495.00897   -32.064944 
    3600    499.77588   -274.39668 
    3700    497.51511   -105.35574 
    3800    502.15723    28.483064 
    3900    497.65666    -356.0439 
    4000    500.43271    228.50733 
    4100    498.82016   -451.98504 
    4200    500.15724    148.04652 
    4300    502.28149   -30.555229 
    4400    499.64738   -207.09692 
    4500    501.41718   -62.815582 
    4600    499.22556   -124.03348 
    4700    500.01629    -171.8388 
    4800    498.80189   -19.314445 
    4900    503.00355   -215.00476 
    5000    500.29694   -224.34164 
    5100     497.5454   -164.29983 
    5200    494.37423   -1.0192213 
    5300    502.48942   -390.34243 
    5400    502.69469    5.7421056 
    5500    498.10108   -175.85375 
    5600    500.13894   -32.800498 
    5700    501.31396   -37.285819 
    5800    503.79358   -339.07263 
    5900    501.26425    109.34767 
    6000    501.54172   -149.31154 
    6100    501.97587   -220.48071 
    6200    504.34597    47.214692 
    6300     504.1282   -261.38803 
    6400    497.56056    49.332288 
    6500    498.13797    18.480133 
    6600    497.19545    82.002918 
    6700    501.70292   -139.25768 
    6800    496.83601   -16.384862 
    6900    494.83797   -220.95569 
    7000    505.20761    14.052557 
    7100    503.20644    -74.39768 
    7200    497.16808   -284.69746 
    7300    499.69036    186.24744 
    7400    500.81659   -205.02088 
    7500    500.93357   -94.689153 
    7600    497.74664   -356.68874 
    7700    494.98066    41.170074 
    7800    498.06346    -191.0481 
    7900     499.2869   -246.17659 
    8000     501.3202   -58.194435 
    8100    502.71671    110.65592 
    8200    500.62271   -96.510338 
    8300    499.26039   -327.89073 
    8400    499.69563    4.0164313 
    8500    500.89107   -431.21989 
    8600    505.19971    412.08725 
    8700    499.55395   -472.46995 
    8800    500.89815    278.43811 
    8900    502.69689   -106.42636 
    9000    502.76406    45.960063 
    9100    501.50197    -33.36894 
    9200    503.92032   -116.69406 
    9300    501.88935   -89.470846 
    9400    497.96452    273.32047 
    9500     498.5955   -152.40416 
    9600     500.3474   -47.230189 
    9700    502.51708    129.07016 
    9800    491.72725   -171.26424 
    9900    500.28223     192.3835 
   10000    503.23156    10.357874 
   10100    500.12924   -465.78681 
   10200    504.34449   -70.600867 
   10300    501.73287    46.106855 
   10400    495.66332   -486.43307 
   10500    506.65261    338.74893 
   10600    503.25346   -460.72109 
   10700    496.04619    213.78017 
   10800    504.64237   -55.355482 
   10900    500.04895   -69.150518 
   11000     498.9565   -233.19392 
   11100    492.47095    45.513581 
   11200    494.59399   -180.09967 
   11300    501.96132   -95.212477 
   11400     497.8621   -14.430993 
   11500    500.00125    58.003009 
   11600    500.69997   -142.57439 
   11700    497.72852   -125.31056 
   11800    501.67515    19.636786 
   11900    497.90024   -14.807578 
   12000    497.56044   -228.88492 
   12100    503.25665    182.75221 
   12200    501.98508   -452.00187 
   12300    507.39632    290.98906 
   12400    502.40748   -106.32287 
   12500     497.5174   -57.935408 
   12600     503.4095   -97.263674 
   12700    502.13352   -75.387764 
   12800    502.23034   -89.331648 
   12900    503.38185    176.18959 
   13000    503.73234   -416.23554 
   13100    500.49626     205.7926 
   13200    502.79267   -293.34248 
   13300    503.22859    120.09711 
   13400    495.97482    182.33155 
   13500    499.67797   -124.01347 
   13600    500.75229   -25.368727 
   13700    501.37996   -152.64531 
   13800    499.76835   -104.38458 
   13900    499.27664   -194.64235 
   14000    503.26588    94.319012 
   14100    500.73795   -327.48847 
   14200    498.53079    329.20986 
   14300    500.25594   -233.84424 
   14400    504.08273    106.71266 
   14500    497.19105   -201.19885 
   14600    500.03171    431.31479 
   14700    495.73066   -439.49528 
   14800    500.00443    96.239491 
   14900    500.59331   -46.534545 
   15000    503.50104   -253.12926 
   15100    499.83375   -106.52113 
   15200    500.56603   -9.0473285 
   15300     498.7687    -32.47168 
   15400     495.1543   -236.25119 
   15500    492.09298   -276.34485 
   15600    503.21413    14.300852 
   15700    500.91576    78.219445 
   15800     500.4226   -465.61527 
   15900    501.95031     377.5374 
   16000    501.95765   -215.26705 
   16100    499.57739 -0.024380413 
   16200    500.41592     113.3505 
   16300    498.03281   -38.688939 
   16400    499.68137    242.92834 
   16500    499.56989    -238.9974 
   16600    496.35054     279.9944 
   16700    497.13788   -554.59192 
   16800    504.15951    302.48626 
   16900    496.36871    114.81475 
   17000    496.58799    -370.3781 
   17100    497.64485    373.53898 
   17200    500.08691   -465.36186 
   17300    502.41624    84.999613 
   17400    499.63025   -41.963965 
   17500      506.378   -309.19675 
   17600    500.67168    266.46372 
   17700    504.62746    -76.18649 
   17800    498.96948   -338.95224 
   17900    499.36148    298.53285 
   18000    494.61004   -376.57705 
   18100    500.33804    80.770869 
   18200    502.92049   -92.822802 
   18300    498.75636   -81.035887 
   18400    497.94551   -24.217055 
   18500    498.23732     181.4324 
   18600    501.73984   -132.99321 
   18700    499.73331    254.07001 
   18800    498.23369   -234.70919 
   18900    504.73839    27.884499 
   19000    496.25846    195.45187 
   19100    503.98101   -668.01661 
   19200    506.15838     539.9406 
   19300     499.0448    -465.0668 
   19400    500.01748   -232.92482 
   19500    500.71771    287.31964 
   19600    494.58316   -220.62162 
   19700    501.36679    155.17986 
   19800    501.34196   -82.876144 
   19900    498.79357   -27.371897 
   20000     499.1132    187.26997 
   20100    505.35906   -429.37246 
   20200    502.57953    103.85985 
   20300    500.31043   -97.052894 
   20400    497.75887   -179.20286 
   20500    500.17688   -129.46889 
   20600     492.6591    125.67963 
   20700    502.25855   -282.59847 
   20800    497.61967    391.11951 
   20900    498.40149   -291.71808 
   21000    498.69945   -139.41448 
   21100    500.38915     50.85426 
   21200    498.91015   -197.59614 
   21300    503.45917    152.07061 
   21400    498.30738   -6.0087144 
   21500    498.56067    32.173429 
   21600    500.89799    61.320046 
   21700    499.54327   -83.963452 
   21800      501.049      -203.85 
   21900    501.59104    21.680016 
   22000    501.37824   -342.09375 
   22100    500.73973    273.88027 
   22200    504.98686   -62.257328 
   22300    502.73936    -172.4901 
   22400    498.67897   -78.591798 
   22500    503.17801    153.71958 
   22600    506.36392   -241.07792 
   22700    503.00044   -179.44736 
   22800    499.60987   -10.796566 
   22900    496.27103    98.464734 
   23000    501.21544    39.387079 
   23100    500.46658   -51.167076 
   23200    504.32862   -144.17404 
   23300    499.74514    136.14007 
   23400    501.29951   -181.48578 
   23500    503.33279   -41.718152 
   23600    502.42125    14.714778 
   23700     503.7047   -247.09744 
   23800    495.81304    163.72488 
   23900    500.18245    200.44513 
   24000    494.71302   -103.81853 
   24100     501.3982   -274.43835 
   24200    497.17839   -33.692857 
   24300    504.36869   -441.07915 
   24400    502.83452    366.53288 
   24500    499.65852   -43.725193 
   24600    496.20736   -330.80046 
   24700    499.25904    390.28626 
   24800       491.39   -291.77334 
   24900    499.02057     137.1925 
   25000     503.1605   -220.01177 
   25100    501.26573    34.405648 
   25200    498.28914   -129.80799 
   25300       503.72    263.27378 
   25400    502.76723   -335.46537 
   25500    494.50457    108.01045 
   25600    500.92985    55.987329 
   25700    496.23578   -51.314005 
   25800    504.48123   -20.955203 
   25900    504.25562    237.65294 
   26000     497.2264   -330.37887 
   26100    502.49158   -199.62251 
   26200    499.23643    46.488703 
   26300    499.33876   -22.112647 
   26400    498.24162   -72.430346 
   26500    504.27314   -186.01585 
   26600    499.01258   -113.69941 
   26700    502.92517   -214.33821 
   26800    503.32634    37.438256 
   26900    499.72033    41.613464 
   27000    496.19556    102.05069 
   27100    495.56616   -94.090538 
   27200    503.68947     4.540075 
   27300    498.17982    20.465456 
   27400    497.35992    15.181846 
   27500    496.51245    97.635169 
   27600    498.22573   -26.479053 
   27700    499.39278   -280.60366 
   27800    499.21891    126.48895 
   27900    499.44287   -176.37761 
   28000    495.99058     188.8869 
   28100    498.13986    161.53431 
   28200    502.28232   -238.86753 
   28300    501.84898   -177.76351 
   28400     497.1911    58.592089 
   28500     499.7337   0.79286593 
   28600    497.41595   -339.92077 
   28700    506.02558    170.25308 
   28800    496.90282   -12.847179 
   28900    491.59742    68.137957 
   29000    496.72478    71.930554 
   29100    503.75248   -384.76073 
   29200    499.26911    250.12668 
   29300     498.1353   -328.57623 
   29400    502.00284    39.642433 
   29500    506.11032   -201.28843 
   29600    499.84449    193.51581 
   29700    502.58523   -259.68178 
   29800    502.89261    375.98263 
   29900     497.3932   -100.65276 
   30000    505.26422    40.281476 
   30100    498.38373   -16.093194 
   30200    501.72393    44.865493 
   30300    500.25046   -222.05377 
   30400    496.58051    215.00925 
   30500    498.09155   -402.96571 
   30600    500.22442    173.96635 
   30700    499.09964   -209.70999 
   30800    498.58892    367.59753 
   30900    503.68051   -12.204991 
   31000    500.18681   -299.34636 
   31100    502.89147    226.17526 
   31200    501.50961   -509.27892 
   31300    497.74476    408.20328 
   31400    498.39355   -155.75193 
   31500    501.81253    64.630624 
   31600    497.93304   -291.86941 
   31700    500.53522    130.95881 
   31800    497.09603   -18.371334 
   31900    492.15592    30.208472 
   32000    498.59633    369.76078 
   32100    505.39677   -492.16821 
   32200    499.05845     170.3161 
   32300    494.38642   -147.21084 
   32400    499.68839    152.52108 
   32500    502.39074   -156.42691 
   32600    500.48255    21.028179 
   32700    502.37851   -256.10092 
   32800    497.64547     -156.717 
   32900    502.91705    113.48163 
   33000    494.26991    -388.2561 
   33100    501.02667    20.392286 
   33200    500.07249    103.60682 
   33300    501.05951     -92.8445 
   33400    501.32888   -122.07657 
   33500    500.08492   -84.064107 
   33600    490.43799   -61.040585 
   33700    506.12903   -292.70615 
   33800    498.57395    263.24941 
   33900    505.80914    -14.90875 
   34000    497.31987   -15.661955 
   34100    504.18669    74.466625 
   34200    496.81228    -52.48121 
   34300    495.40248   -230.32586 
   34400    501.55911    -303.3564 
   34500    505.66056   -62.478309 
   34600    496.36708    120.68815 
   34700    497.34025   -289.19781 
   34800    501.25889    211.33881 
   34900    497.15668   -215.37125 
   35000    501.64393    -32.47146 
   35100    501.55437    357.53603 
   35200    503.58021   -163.24785 
   35300    503.86359   -296.51029 
   35400    503.46735    529.44647 
   35500    497.92499   -374.41651 
   35600    497.28901    274.66955 
   35700    498.24835   -397.42861 
   35800    501.76897    195.04676 
   35900    504.82583    169.56125 
   36000    498.33218   -72.659563 
   36100    501.35321   -57.683543 
   36200    499.17623    51.367868 
   36300    501.99381   -404.65739 
   36400     496.8529    341.07661 
   36500    506.50198   -23.249384 
   36600    495.79582     -111.515 
   36700    502.06971    87.264258 
   36800    496.63923   -93.619996 
   36900    492.92991    75.916379 
   37000    495.51073    -80.41266 
   37100    499.84836   0.32708627 
   37200    501.63582    38.707871 
   37300    505.59387   -468.14048 
   37400    496.76908   -153.13415 
   37500    502.86278   -61.566074 
   37600    498.48402    29.395732 
   37700    498.17658   -138.59791 
   37800    497.73734    368.68114 
   37900    499.52518   -344.25632 
   38000    496.73864    96.244939 
   38100    505.96286    6.8609225 
   38200    501.48363    -60.12642 
   38300    497.10108   -23.460864 
   38400    496.31941   -22.891607 
   38500     498.2189     -9.67564 
   38600    503.46508   -325.54824 
   38700    496.44688    281.28482 
   38800    500.28348    60.142122 
   38900    496.56348    67.630205 
   39000    503.11098   -500.06798 
   39100    501.78986    296.68191 
   39200    498.79921   -681.20048 
   39300    501.81354    338.70832 
   39400    497.58805   -96.751421 
   39500    500.26252    80.540245 
   39600    503.41804   -144.65444 
   39700     501.5253    179.40972 
   39800    498.84537   -563.60367 
   39900    500.42891    403.21444 
   40000      502.425   -427.27486 
   40100    501.56535    338.18391 
   40200    501.16454   -316.80904 
   40300    497.19836    364.35486 
   40400    496.68567   -216.09673 
   40500    499.16424    97.150942 
   40600     501.4119   -234.17184 
   40700    497.70945    99.106636 
   40800    502.31228   -464.52188 
   40900    502.22474     349.5055 
   41000    498.32364   -190.59908 
   41100    499.18835    394.46118 
   41200    499.05834   -293.40192 
   41300    503.03015    60.640585 
   41400    499.20958   -125.55929 
   41500    500.08433   -13.935293 
   41600    499.95735    153.45157 
   41700    501.88184   -245.64922 
   41800    502.07401     303.8895 
   41900     501.5505   -489.30762 
   42000    498.18914    133.94984 
   42100     501.7048   -164.71638 
   42200    500.61815   -246.05423 
   42300      499.755    142.56369 
   42400     504.4016   -223.64274 
   42500    500.13578    245.99912 
   42600    498.46475   -185.29555 
   42700    500.25569   -17.323853 
   42800    499.25171   -135.32558 
   42900    500.36308   -256.48537 
   43000    500.90906    378.67122 
   43100    501.88858   -405.34345 
   43200    501.74365    107.14897 
   43300    499.29673   -99.231843 
   43400    496.75023    108.03167 
   43500    498.82416    194.08366 
   43600    501.41063    160.21129 
   43700    498.03427    -97.37575 
   43800    499.30969    47.561665 
   43900    502.47827    62.461662 
   44000    500.90527   -345.68492 
   44100     500.9994    136.24848 
   44200    498.19019    34.861064 
   44300    499.90683   -533.31027 
   44400    503.41917    830.24276 
   44500    499.59823    -537.8799 
   44600    497.82457   -62.656781 
   44700    492.78719    112.33922 
   44800    496.20555    -376.4899 
   44900    500.82743    32.523754 
   45000    499.34199    135.99489 
   45100    498.57615   -66.279091 
   45200    498.79281   -496.77757 
   45300     496.8775    457.37942 
   45400    503.06957    -705.7351 
   45500     503.6044    502.91547 
   45600    503.07318    143.94339 
   45700    503.02913   -232.32952 
   45800    502.04402    68.385552 
   45900    496.91683   -134.78485 
   46000    502.45742    103.11067 
   46100    494.71249   -62.022721 
   46200     507.0492    280.95312 
   46300    502.04628   -570.55779 
   46400    499.14651    144.60826 
   46500    500.97033    123.02741 
   46600     500.2645   -186.72412 
   46700    497.45301      -195.21 
   46800    499.00198    150.82096 
   46900    499.21148    145.69779 
   47000    498.36863   -77.243538 
   47100    495.00387     137.6625 
   47200    505.11469   -448.58658 
   47300     503.3506    255.95023 
   47400    501.44796   -30.702964 
   47500    502.37122   -29.586715 
   47600    498.70695   -32.816605 
   47700    502.07506    45.198049 
   47800    496.80986    101.67265 
   47900    499.44055    484.70227 
   48000    499.42378    52.030317 
   48100    502.74286   -76.413331 
   48200    499.89213    260.73861 
   48300    499.91562   -270.96858 
   48400    504.28019    304.30313 
   48500    501.66192   -330.32717 
   48600    497.93725     327.7073 
   48700    500.83391   -514.11987 
   48800    499.87143    354.05659 
   48900    498.29107   -271.96642 
   49000    501.86049    -174.4946 
   49100    502.07755   -46.391191 
   49200    498.46683   -140.66208 
   49300    502.99265     36.09279 
   49400    495.84293    -240.4629 
   49500      505.423    222.65108 
   49600    500.04036   -110.82766 
   49700    500.87498  -0.22588231 
   49800    500.34982    348.17269 
   49900    499.09585   -76.491027 
   50000    500.38515   -179.57237 
Loop time of 554.154 on 1 procs for 50000 steps with 10000 atoms

Performance: 3.898 ns/day, 6.157 hours/ns, 90.228 timesteps/s
96.0% CPU use with 1 MPI tasks x no OpenMP threads

MPI task timing breakdown:
Section |  min time  |  avg time  |  max time  |%varavg| %total
---------------------------------------------------------------
Pair    | 379.76     | 379.76     | 379.76     |   0.0 | 68.53
Bond    | 90.695     | 90.695     | 90.695     |   0.0 | 16.37
Neigh   | 61.616     | 61.616     | 61.616     |   0.0 | 11.12
Comm    | 4.3758     | 4.3758     | 4.3758     |   0.0 |  0.79
Output  | 0.019706   | 0.019706   | 0.019706   |   0.0 |  0.00
Modify  | 16.637     | 16.637     | 16.637     |   0.0 |  3.00
Other   |            | 1.05       |            |       |  0.19

Nlocal:    10000 ave 10000 max 10000 min
Histogram: 1 0 0 0 0 0 0 0 0 0
Nghost:    13776 ave 13776 max 13776 min
Histogram: 1 0 0 0 0 0 0 0 0 0
Neighs:    803454 ave 803454 max 803454 min
Histogram: 1 0 0 0 0 0 0 0 0 0

Total # of neighbors = 803454
Ave neighs/atom = 80.3454
Ave special neighs/atom = 5.988
Neighbor list builds = 2500
Dangerous builds = 0
unfix 1
unfix 2
write_restart 	restart.${simname}.dreiding2
write_restart 	restart.PE_nc10_cl1000.dreiding2

#####################################################
# Equilibration Stage 3 (NPT dynamics from 500 K --> 100 K)
fix		1 all npt temp 500 100 50 iso 0 0 1000 drag 2
fix		2 all momentum 1 linear 1 1 1
thermo_style	custom step temp press
thermo          10
timestep	0.5
reset_timestep 	0
run		50000
WARNING: Inconsistent image flags (../domain.cpp:784)
Per MPI rank memory allocation (min/avg/max) = 18.52 | 18.52 | 18.52 Mbytes
Step Temp Press 
       0    500.38515   -179.57237 
      10    498.18574    109.64601 
      20     501.6613    387.22152 
      30    502.64652    358.27064 
      40    500.66287    64.482683 
      50    502.19549   -164.20845 
      60    504.99294   -117.47189 
      70    501.89798    110.21572 
      80    501.56156    340.20629 
      90    506.93401    376.09301 
     100    503.72508    92.915502 
     110    500.21452   -245.83488 
     120     503.8224   -345.95559 
     130    499.09582   -261.24375 
     140    494.33037   -62.056926 
     150    497.48246     92.98177 
     160     496.7642   -28.790482 
     170      495.035    -323.8688 
     180    495.71486   -512.63994 
     190    497.87151    -429.9632 
     200    497.60853   -176.87365 
     210    494.33362    19.341015 
     220    500.49049    76.186514 
     230    504.64141   -75.337543 
     240    499.17793   -261.11122 
     250    504.56131   -115.57667 
     260    506.92074    185.95543 
     270    495.03259    323.37651 
     280    496.07423    371.59166 
     290    500.80881    287.68972 
     300    495.63559     108.9086 
     310    497.59082    105.86984 
     320    502.56001    217.80382 
     330    500.16311     212.8931 
     340    496.34793    78.459202 
     350    498.06765   -46.611389 
     360    499.83033   -107.43816 
     370    496.12284   -125.35229 
     380    498.42485   -76.875963 
     390    502.59452   -91.494325 
     400    498.24497   -233.01966 
     410    498.95784   -262.95798 
     420    501.95179   -140.87932 
     430    500.05771    4.8621759 
     440    500.87895    116.66149 
     450    501.13063     99.54513 
     460    499.71435   -22.486417 
     470    498.87087   -124.34382 
     480    496.13008   -138.70515 
     490    495.84163   -35.794324 
     500    494.99144     66.64921 
     510    493.57526    57.087832 
     520    495.65504   -66.478751 
     530    495.69355   -260.44516 
     540    493.73775   -364.33004 
     550    496.36792   -224.77034 
     560    496.76834     37.80476 
     570    495.89322    233.81938 
     580    499.32088    244.64502 
     590    499.27016     29.38787 
     600    496.44326   -202.51457 
     610    496.89166   -188.46098 
     620    495.83292    61.501316 
     630    492.13989    346.47202 
     640    494.34998    478.65346 
     650    496.27902    306.88034 
     660    493.41629   -45.039667 
     670    496.38668   -191.26598 
     680    498.11374   -21.344762 
     690    493.28862    292.23876 
     700    495.76597    551.69218 
     710    497.93895    496.68783 
     720    494.40872    171.09102 
     730    498.07085   -52.996453 
     740    499.93935   -65.020298 
     750    497.48673    65.112669 
     760    498.84888    224.11638 
     770    497.84873    235.74019 
     780    498.30463     126.3848 
     790    497.54679   -36.725706 
     800    495.25139   -164.14253 
     810    497.02572   -178.95364 
     820      494.659   -153.04882 
     830    494.56897   -65.195293 
     840    498.15163    25.116554 
     850    496.43939   -26.136164 
     860    496.85655   -163.77161 
     870    498.08097   -324.26001 
     880    495.45407   -441.43422 
     890    495.88162    -399.5827 
     900    495.81585   -271.25069 
     910      494.997   -193.99632 
     920    496.53379   -254.11516 
     930    495.60889   -460.16356 
     940      496.413   -623.55599 
     950    496.75803     -609.443 
     960    495.60132   -410.56511 
     970    497.31062   -145.48305 
     980    496.71579     -61.4717 
     990    496.41317   -222.66609 
    1000    496.74616   -507.21014 
    1010    496.30053   -685.79991 
    1020    495.24914   -587.62642 
    1030    495.15686   -270.09256 
    1040    496.86526  -0.28966127 
    1050      495.096   -40.994615 
    1060    494.90189   -313.45705 
    1070    495.70119   -578.94937 
    1080    494.57749   -621.66126 
    1090    494.69775   -370.62585 
    1100    493.84904   -38.807927 
    1110    492.26702    120.08587 
    1120    491.73574    24.534983 
    1130    491.26236   -206.05611 
    1140    491.83433   -309.33733 
    1150    493.68689   -130.85284 
    1160    493.55015    201.19166 
    1170    495.01195    463.10544 
    1180    494.93406    446.32063 
    1190    492.84715    187.94039 
    1200     494.2133   -32.250357 
    1210    491.99721   -61.603438 
    1220    489.91803    119.98041 
    1230    491.32008    334.31616 
    1240    489.98359    337.15366 
    1250    491.14461     176.4703 
    1260    492.98367    3.2782387 
    1270     494.6537   -66.414214 
    1280    495.81277   -51.385687 
    1290    494.61609   -35.861435 
    1300    496.91341   -6.8456809 
    1310    496.23736   -9.0438284 
    1320    493.84122   -24.024337 
    1330    497.27787   -18.644576 
    1340    493.75942   -112.99409 
    1350     489.7182   -193.77371 
    1360    492.58178   -121.09875 
    1370    488.79327    1.5922692 
    1380    488.57584    174.49259 
    1390    491.96655    271.64162 
    1400     487.6239    141.67646 
    1410    488.76499   -25.249879 
    1420    489.05254   -120.99346 
    1430    485.01061    -66.57204 
    1440    489.11039    195.65931 
    1450    488.71146    378.34158 
    1460    487.18519    346.76926 
    1470    490.59576    168.18299 
    1480    488.04124    -75.08363 
    1490    486.88567   -150.27888 
    1500     490.1213    -2.937037 
    1510    490.50279    169.68169 
    1520    490.80417    213.09696 
    1530    493.12085    72.607405 
    1540    493.46168   -204.70349 
    1550    491.07026   -442.44699 
    1560    492.87866   -439.68165 
    1570    493.91516   -270.84225 
    1580    490.38949   -144.64946 
    1590    492.75504   -119.37303 
    1600    493.66987   -239.54768 
    1610    486.46405   -410.57918 
    1620      487.654   -365.10754 
    1630    489.66012    -175.0393 
    1640    483.56056   -20.807258 
    1650    486.37688    133.92416 
    1660    491.10053    171.63796 
    1670    486.58707    33.340776 
    1680     486.8065   -39.206307 
    1690    491.41561    40.444425 
    1700    487.51306    138.80999 
    1710    487.16176    265.09427 
    1720    493.44341    355.20592 
    1730    489.67423    255.75114 
    1740    487.30192    151.12788 
    1750    493.41786    192.31397 
    1760    490.30814    250.03879 
    1770    487.45686    358.60693 
    1780    492.54922    479.07924 
    1790    490.42727    396.77327 
    1800    486.45214    207.16781 
    1810    489.99461    129.35878 
    1820    488.35709    119.02218 
    1830    485.16764     151.5823 
    1840      487.791    186.63865 
    1850    487.81278    80.364771 
    1860    486.90815   -112.02492 
    1870    487.31998   -238.94418 
    1880    489.15739   -224.89495 
    1890    489.26579    -147.5584 
    1900    486.77347   -136.95593 
    1910     488.2681   -208.50205 
    1920    488.37877   -335.14836 
    1930    486.71458   -395.85854 
    1940    487.71909   -322.50232 
    1950    486.41884   -239.56403 
    1960    485.41213   -216.88254 
    1970    486.38646   -231.62372 
    1980    485.00755   -254.12893 
    1990    486.97275   -221.10705 
    2000    488.70504   -181.04872 
    2010    486.55273   -176.16605 
    2020    488.30504   -148.03087 
    2030    489.25183   -127.70432 
    2040    486.99524   -117.56362 
    2050    489.22323   -46.069931 
    2060    490.70857    39.596378 
    2070    487.08176    80.857277 
    2080    487.26043    119.97932 
    2090    489.88202    134.63383 
    2100     486.9284    68.381388 
    2110    486.48399    19.548152 
    2120    490.80028    53.933944 
    2130      487.676    73.139847 
    2140    483.86089    80.902595 
    2150    487.53206     108.9875 
    2160    485.74328    58.967056 
    2170    483.64838    8.0640909 
    2180    488.48066    43.962867 
    2190     488.4121    46.063287 
    2200    487.17149     16.55189 
    2210     487.0695    6.0015013 
    2220    485.90852    17.563195 
    2230    485.49893    24.234611 
    2240    483.56451   -24.445781 
    2250    485.00972   -71.448428 
    2260    485.13268   -117.70184 
    2270     481.9455   -154.31962 
    2280    484.43755   -108.96131 
    2290    482.98363   -74.692343 
    2300     481.7062   -45.964045 
    2310    485.96066   -22.652609 
    2320    483.04499   -119.43404 
    2330    484.63857   -193.13497 
    2340    489.07201   -191.54245 
    2350    484.81219   -180.98432 
    2360    488.81777   -67.706313 
    2370    491.81816   -6.0482658 
    2380    485.19427   -89.556748 
    2390    486.67916   -136.44516 
    2400    485.01296   -193.66163 
    2410    478.27574   -229.75473 
    2420     481.6658   -109.30322 
    2430    481.79641    -8.705112 
    2440    479.87733    5.3810949 
    2450    484.76538   -3.6501804 
    2460    482.74179   -96.649613 
    2470    481.08242   -133.83044 
    2480     482.8554   -46.480476 
    2490    480.03653    50.745928 
    2500    481.56089    150.28628 
    2510    483.00764    188.92509 
    2520    483.96548     183.1371 
    2530    487.41893    198.73342 
    2540    483.70732    193.22305 
    2550    484.20252    246.39443 
    2560    485.24589    283.02199 
    2570    478.42189    229.13806 
    2580    483.07432    274.05845 
    2590    485.46367    310.57752 
    2600    479.32934    258.71174 
    2610    483.90003    252.46673 
    2620    484.51986    179.43798 
    2630    479.59458    77.430278 
    2640    482.65179    113.20463 
    2650    485.45754    189.33134 
    2660    484.79809    177.91408 
    2670    485.33793    70.102128 
    2680    487.11766   -79.528795 
    2690    484.93663   -212.14675 
    2700    482.09347   -222.40213 
    2710    482.07018    -113.4591 
    2720    480.66104    -72.29068 
    2730     480.0325   -198.95765 
    2740    479.53227   -447.09208 
    2750    480.77497   -638.53597 
    2760    483.50948   -634.67016 
    2770      481.262   -479.54901 
    2780    481.73323   -257.01519 
    2790    483.68112   -164.76201 
    2800    479.32103   -324.90872 
    2810    479.60919   -523.96778 
    2820    482.65497   -579.44162 
    2830    478.90233    -467.3071 
    2840    478.85032   -201.66201 
    2850     480.9122   -20.938496 
    2860    478.38898   -103.91588 
    2870    479.91559         -274 
    2880    481.31614   -341.33031 
    2890    479.65945   -208.31799 
    2900    480.44285    81.346084 
    2910    480.49229    288.65208 
    2920    479.20539    251.07242 
    2930    480.59963    38.091897 
    2940    480.93044   -159.10832 
    2950    478.28652   -143.75794 
    2960     478.8203    115.80491 
    2970    477.89554    346.97423 
    2980    474.35776    318.93171 
    2990    476.51072    88.170006 
    3000    476.14731   -202.93778 
    3010    475.67978   -299.84256 
    3020    480.12178   -127.64522 
    3030    477.99073    42.745413 
    3040    476.08291    57.525207 
    3050    478.43455    -117.1006 
    3060      475.057   -413.13267 
    3070    475.48652   -501.98299 
    3080    480.26695   -288.77659 
    3090    479.50641   -25.632298 
    3100    481.14516     102.8142 
    3110    482.39384    0.7569367 
    3120    478.80616   -195.25282 
    3130    478.11825   -195.64747 
    3140    475.99887     2.987511 
    3150    476.77701    254.31372 
    3160    477.66368    330.94327 
    3170    475.26915    179.49671 
    3180    480.16183    39.058988 
    3190    479.25127   -27.534096 
    3200    477.03241    59.030299 
    3210    483.44038    265.38292 
    3220    478.93346    265.19681 
    3230    477.15888     123.7353 
    3240    483.00582   -7.6700949 
    3250    476.32751   -153.26203 
    3260    476.05703   -103.26321 
    3270    481.09263    73.741119 
    3280    476.93481    147.71982 
    3290    479.39427    194.02355 
    3300     481.3024    186.61973 
    3310    477.44381    141.53885 
    3320    477.79806    181.61225 
    3330    476.57549    247.72778 
    3340    476.63624    274.95486 
    3350    476.58902    165.89962 
    3360     475.2921   -57.625371 
    3370    475.91666   -231.71031 
    3380    473.77465   -275.35884 
    3390    474.65364    -160.2104 
    3400    477.80694   -43.999238 
    3410    478.73699   -92.976488 
    3420    481.13576   -245.49889 
    3430    481.93104   -379.33903 
    3440    480.85205   -375.01012 
    3450    478.87575   -213.56587 
    3460    476.14082    3.2551598 
    3470    476.80093    165.70147 
    3480    476.38393    166.60386 
    3490    474.66227    59.837832 
    3500    476.16788    6.7178768 
    3510    474.45292    44.772684 
    3520    471.37744    172.37968 
    3530    472.66871    315.99321 
    3540    473.95436    317.41395 
    3550     473.9306    168.37521 
    3560    475.00355    26.603645 
    3570    478.54358    28.206237 
    3580    477.81179    112.14842 
    3590    474.32785    192.59831 
    3600    477.21679    237.37679 
    3610    475.99654     123.3015 
    3620    471.80103   -56.165341 
    3630    474.97088   -94.336461 
    3640     475.6817   -41.434341 
    3650    473.09491    36.929251 
    3660    474.26841    119.42451 
    3670     473.6599    111.24526 
    3680    472.28349    35.542973 
    3690    470.11749   -54.877065 
    3700    468.47102   -112.33451 
    3710    471.51056   -99.266261 
    3720    469.10778   -112.25094 
    3730    468.39721   -99.885309 
    3740    474.46077   -31.766113 
    3750    473.87643   -46.661184 
    3760    473.13486   -95.540796 
    3770    477.53071    -108.5635 
    3780    476.65196   -156.05053 
    3790    473.72343   -178.30087 
    3800    475.22536   -74.147151 
    3810    476.08665    81.158103 
    3820    474.81308    158.34158 
    3830    474.97839    96.215138 
    3840    476.56877   -74.992302 
    3850    473.93078   -218.44497 
    3860    471.18609    -119.2562 
    3870    475.85292    217.47289 
    3880      474.506    415.28794 
    3890    472.16616     343.9468 
    3900    477.21218    143.16568 
    3910    474.30252   -81.282425 
    3920     471.7641   -65.391998 
    3930    474.75558    207.59831 
    3940     471.2735    416.87063 
    3950    469.55871     420.9025 
    3960    470.64561    199.27886 
    3970    467.85765   -114.61592 
    3980    467.13673   -213.70817 
    3990    468.30755   -19.113718 
    4000    467.64556    254.26458 
    4010    468.20501    344.05576 
    4020    468.99022     127.9736 
    4030    467.73974   -226.90971 
    4040    467.21624     -393.991 
    4050    467.25311   -234.15741 
    4060    465.73032    92.460283 
    4070    468.14216    325.18122 
    4080    470.02524    229.79137 
    4090    469.74334   -127.52478 
    4100    474.48513   -406.32751 
    4110    473.98197   -441.50888 
    4120    470.77967   -210.36959 
    4130    474.47219     113.0588 
    4140    470.99972    133.34894 
    4150    466.22354   -146.17843 
    4160    471.53009   -415.97495 
    4170      470.874   -540.45806 
    4180    469.04099   -377.25352 
    4190    474.80012   -7.0117577 
    4200    473.63159    167.40733 
    4210     471.8288    69.905432 
    4220    473.30632   -122.20563 
    4230     470.8437   -219.85615 
    4240    471.11392   -53.745955 
    4250    471.34082    229.34255 
    4260    471.80598    381.44405 
    4270     471.6968    273.95836 
    4280    468.28799    1.0260325 
    4290    468.94042   -156.29729 
    4300     467.4392   -114.23233 
    4310    463.68643    81.046348 
    4320    468.98826    319.53877 
    4330    470.25718    299.57769 
    4340    466.30738    44.746557 
    4350    471.75459   -84.570272 
    4360    469.77891   -37.473538 
    4370    465.16538    176.84373 
    4380    469.53313    410.25382 
    4390    466.62365    324.62892 
    4400    464.48375    42.800638 
    4410    467.53139   -148.94953 
    4420    466.45826    -164.5829 
    4430    466.66198   -24.045856 
    4440    468.18653    77.440281 
    4450    469.81204    6.6577152 
    4460    470.03319      -161.57 
    4470    467.71725   -231.71558 
    4480    469.86733   -61.385949 
    4490    468.22338    153.77073 
    4500    464.09748    220.72232 
    4510    467.32869    143.69901 
    4520    463.81823   -71.787868 
    4530    461.95208   -161.19206 
    4540    467.68865    2.4359518 
    4550    465.05292    161.10266 
    4560    467.69312    219.69249 
    4570    472.39662    86.854052 
    4580    466.88816   -189.32684 
    4590    468.30738   -251.17067 
    4600    470.14072   -81.006617 
    4610    463.81978     107.0607 
    4620    466.49505    227.89875 
    4630    469.70285    102.93785 
    4640    464.70025   -225.93433 
    4650    466.44511   -387.39993 
    4660    469.21455    -271.8402 
    4670    463.36009   -43.471461 
    4680    463.28297    163.52245 
    4690    466.83622    139.15011 
    4700    462.94399   -153.78495 
    4710    464.86088    -349.9345 
    4720    469.58372   -276.19441 
    4730    464.66974   -84.752179 
    4740    464.01602    118.22578 
    4750    466.38109    127.22792 
    4760    461.44319   -147.25253 
    4770    460.65715   -407.32372 
    4780    464.97747   -428.71695 
    4790    463.09819   -260.87953 
    4800    463.27559     12.00854 
    4810    468.43831    171.28795 
    4820    466.07061     8.429302 
    4830    464.62264   -245.86262 
    4840    469.18562   -295.25214 
    4850    467.47986   -141.98696 
    4860    464.63244    118.22168 
    4870    467.82554    287.71153 
    4880    465.88535    146.81863 
    4890    461.95813   -151.96339 
    4900    465.19078   -296.44681 
    4910    464.95281   -244.61903 
    4920     461.3364   -65.277131 
    4930    464.36728    120.43592 
    4940    464.38501    72.202442 
    4950    461.48771   -184.50022 
    4960    464.75593   -391.35518 
    4970    465.66329   -424.39419 
    4980    463.98796   -237.57015 
    4990    465.03839    44.098232 
    5000    463.44987    125.41534 
    5010    461.50329   -60.136714 
    5020    462.59296   -319.16093 
    5030    464.41771   -406.44321 
    5040    464.34366   -223.31683 
    5050    463.09595    90.783528 
    5060    463.55733    284.80268 
    5070    461.66622    179.09682 
    5080    460.17425   -97.332465 
    5090    463.48622   -249.07894 
    5100     465.3533   -163.66069 
    5110    466.26131    80.124777 
    5120    466.80285    266.94977 
    5130    462.82562    222.51971 
    5140    459.82255    52.578191 
    5150    459.09039    -48.13886 
    5160    458.05637    10.049038 
    5170    460.00725    188.89986 
    5180    463.35574    310.71325 
    5190    464.47234    242.51826 
    5200    464.74384    59.703694 
    5210    464.22477   -68.029915 
    5220    462.37681   -39.397336 
    5230    461.66462    102.00639 
    5240    462.53288    193.76236 
    5250    461.71095    129.90909 
    5260    462.41827    24.268723 
    5270    464.70513    12.745266 
    5280    462.25012    78.243441 
    5290    461.16888    172.98239 
    5300    462.34856    174.70211 
    5310    460.92888    17.988733 
    5320    459.65699   -157.92577 
    5330    460.41429   -184.90139 
    5340    462.21141   -44.599613 
    5350    459.74605     89.61294 
    5360    457.90884    106.57196 
    5370    462.83788    18.036458 
    5380    461.30278   -166.63659 
    5390    459.14686   -216.22989 
    5400    466.24677    -9.929919 
    5410    465.33025    157.53753 
    5420    461.42042    170.73873 
    5430    466.45223    96.483197 
    5440    464.74407    -100.4754 
    5450    461.17084   -217.42941 
    5460    465.90138   -92.267247 
    5470    464.37997    61.222533 
    5480    460.66919    119.00448 
    5490    462.62238    54.213088 
    5500    460.66146   -168.13813 
    5510     457.0798   -345.55978 
    5520    459.44288   -275.56967 
    5530    459.79996   -104.28163 
    5540    457.82805   -25.607331 
    5550    459.48046   -84.474144 
    5560    459.52058   -258.48941 
    5570    456.65692    -398.8186 
    5580    456.53252   -350.37185 
    5590    454.80566   -186.51441 
    5600    453.72642    -17.53764 
    5610    456.64789    62.061846 
    5620    456.50485   -48.129658 
    5630    457.67896    -215.7931 
    5640    461.62147   -249.27928 
    5650    459.39898   -128.78367 
    5660    456.96371    97.489013 
    5670    458.34204    244.42766 
    5680    456.35356     123.3651 
    5690    453.94479   -129.90703 
    5700    457.56306   -229.90898 
    5710    458.76313   -143.93446 
    5720    456.00582    22.504501 
    5730    459.00998    179.21014 
    5740    459.74437    155.20865 
    5750    456.25493   -25.981747 
    5760    460.20693   -132.25032 
    5770    462.00214   -126.70756 
    5780    458.69631   -16.460525 
    5790    459.94077    168.99606 
    5800    458.26563    198.23006 
    5810    454.57999     13.55993 
    5820    455.00807   -207.86296 
    5830    456.38671   -285.99434 
    5840    456.07806   -149.29155 
    5850    457.75323    110.55862 
    5860    459.51957    244.12501 
    5870    457.12927    93.587607 
    5880    457.08363   -185.75271 
    5890    459.50749   -357.42735 
    5900    458.26812   -308.30172 
    5910    458.23751   -59.420057 
    5920    461.17636    164.37721 
    5930    457.32026    91.932123 
    5940    453.40386   -178.83366 
    5950     455.6296   -371.10435 
    5960     451.3603   -385.03635 
    5970    450.13272   -135.35632 
    5980    456.16503    201.53426 
    5990     455.2737    261.49708 
    6000    455.64042    64.650236 
    6010    459.22826   -181.68909 
    6020    458.00907   -295.26376 
    6030    457.48152   -136.62541 
    6040    457.56927    150.53197 
    6050    455.41839    290.94651 
    6060    453.64615    174.38975 
    6070    451.49343   -109.51588 
    6080     450.7159   -320.72804 
    6090      453.625   -283.00522 
    6100    456.33032   -65.824583 
    6110    459.79802    144.82027 
    6120    462.64518    155.78392 
    6130     460.4071   -68.508849 
    6140    456.05028   -312.43812 
    6150    452.82628   -359.27769 
    6160    451.52213   -198.82363 
    6170    450.00055   -4.7268193 
    6180    451.16881    100.52881 
    6190    454.21662    90.700853 
    6200    453.72757    5.4478128 
    6210     452.8814   -38.670737 
    6220     452.3833    2.7618829 
    6230    450.81807    106.25898 
    6240    448.64638    226.44918 
    6250    448.30462    313.80743 
    6260    450.50264    330.67222 
    6270    450.14515    252.57091 
    6280    450.34439    169.12317 
    6290    452.81141    152.22305 
    6300    451.71347    155.38328 
    6310    450.31443    167.99021 
    6320    451.09252    173.64711 
    6330    450.91801    117.57468 
    6340    451.05601    17.700013 
    6350     451.5972   -76.579531 
    6360    452.33616   -124.02625 
    6370    452.18975   -108.34714 
    6380    449.88261   -42.161067 
    6390    451.37161    53.778951 
    6400    451.92197    41.318809 
    6410    450.09427   -110.19727 
    6420    452.80165   -250.53174 
    6430    452.89705   -298.67682 
    6440    449.02825   -193.06633 
    6450    450.68067     54.70335 
    6460    450.75165    200.19363 
    6470     447.8334    128.81761 
    6480    450.45469   -28.581667 
    6490    452.42595   -152.64227 
    6500    450.90606   -118.27863 
    6510    451.26974    109.96894 
    6520    452.02083    348.43863 
    6530    451.24242    382.68213 
    6540    450.02024    175.20887 
    6550    450.42017   -89.995055 
    6560    451.55159    -192.7606 
    6570    450.52916   -79.084678 
    6580    450.34588    140.53472 
    6590    451.48961    232.32268 
    6600    449.93361    31.826228 
    6610    448.65817   -324.89252 
    6620    450.63012   -559.04148 
    6630    449.45321   -547.25736 
    6640    447.76228   -308.76734 
    6650    449.62722   -39.175139 
    6660    448.17716   -14.820957 
    6670    445.90105   -218.28629 
    6680    448.10006   -402.20177 
    6690    447.96875   -413.75142 
    6700    446.61256   -197.44627 
    6710    450.44817      139.255 
    6720    451.09127    274.53984 
    6730    449.86112    110.29231 
    6740    451.98236    -159.9225 
    6750     450.8313   -320.03529 
    6760    449.44359   -188.92756 
    6770    450.03477    141.65064 
    6780    448.67531    334.69561 
    6790     448.0884     205.3975 
    6800    448.77902   -138.20563 
    6810    448.91901   -385.39465 
    6820     448.7785   -289.27644 
    6830    449.11577     71.68613 
    6840    449.31468    345.96279 
    6850    448.11509    251.82474 
    6860    446.97332    -126.4278 
    6870    448.67122   -421.71269 
    6880    448.42187   -394.68181 
    6890    447.79807   -76.875568 
    6900    450.14275    254.29889 
    6910    446.41867    265.75888 
    6920    444.96617    51.547402 
    6930    446.96498   -140.07375 
    6940    445.75094   -166.36465 
    6950     451.1362    39.032678 
    6960    454.02383    212.33715 
    6970     450.5833     161.3794 
    6980    452.10493    1.6367777 
    6990    449.45909   -180.93662 
    7000    444.47861   -224.12334 
    7010     446.8639   -41.183388 
    7020    445.89489    124.58043 
    7030    444.36358    113.07396 
    7040    446.74465   -66.094646 
    7050    445.86629   -319.89902 
    7060    445.72368    -416.3773 
    7070    446.59854    -269.9969 
    7080    447.37724   -23.373863 
    7090    448.81307    89.339025 
    7100     446.8417   -62.563957 
    7110    446.02212   -304.77611 
    7120    445.79005   -405.22735 
    7130    442.80189   -250.51217 
    7140    443.31613    104.96813 
    7150    446.79082    356.86309 
    7160    446.15022    242.14876 
    7170    446.84497   -105.17498 
    7180    450.69144   -361.69479 
    7190    447.65233   -336.22304 
    7200    445.85453    6.6403207 
    7210    450.92777    372.63518 
    7220    447.70776    330.12872 
    7230    444.62962   -15.070427 
    7240    449.57599   -283.46021 
    7250    444.91446   -332.49718 
    7260     440.8422   -55.486912 
    7270    445.83344    356.65405 
    7280    443.66807    455.00436 
    7290    442.60699    229.30823 
    7300    447.76077   -66.942667 
    7310    446.49243   -241.08731 
    7320    444.54019   -117.51722 
    7330    446.30492    177.96089 
    7340    444.55161    289.63851 
    7350    443.00594    123.96584 
    7360    443.64272   -157.87245 
    7370    444.00271   -339.22507 
    7380    444.05012   -304.07569 
    7390    443.07018   -134.11994 
    7400    445.31268     24.26252 
    7410    443.99531  -0.55794808 
    7420    441.29116   -138.86737 
    7430    445.03221   -181.12113 
    7440    441.38433    -145.9531 
    7450    440.44217    22.323792 
    7460     446.1735    221.72293 
    7470       441.24    194.95345 
    7480    442.84417    121.60353 
    7490    447.06974    105.99251 
    7500    440.82167    127.81042 
    7510    443.77532    307.08658 
    7520    445.60438    407.77388 
    7530    440.91721    270.93635 
    7540    446.22204    84.124666 
    7550    445.03837   -113.19876 
    7560    443.06985   -136.54747 
    7570    448.38133    44.430372 
    7580     445.9378    122.99153 
    7590    446.09462    31.642864 
    7600    449.35776   -195.98248 
    7610    445.83404   -439.96091 
    7620    445.41896   -431.05786 
    7630    445.45835   -204.34045 
    7640    443.24554    20.334744 
    7650    442.73347     76.10396 
    7660    442.86432   -64.555941 
    7670    444.68696   -216.70712 
    7680    443.59939   -231.46307 
    7690    440.50582   -77.785736 
    7700    440.67279     148.9075 
    7710    437.70804    233.86605 
    7720    435.24668    165.77845 
    7730    439.16005    74.220643 
    7740     440.6706   -14.254336 
    7750    439.11173   -42.956656 
    7760    440.49218    50.503969 
    7770    440.72828     178.1439 
    7780    437.33664    219.14215 
    7790    437.38596    161.09306 
    7800    442.20114    35.403928 
    7810    441.46171   -133.11258 
    7820    438.49102   -187.05698 
    7830    443.06788    -32.85896 
    7840    439.70879    68.583995 
    7850    435.83843    51.869241 
    7860    444.28805     12.40957 
    7870    443.43438   -135.34015 
    7880    442.38272   -188.43612 
    7890    447.76218   -65.067003 
    7900    443.04196   -10.297893 
    7910    439.47999   -20.530994 
    7920    442.17575   -33.239188 
    7930    442.44547   -53.187916 
    7940    443.77368   -9.7327214 
    7950    444.27723    61.022171 
    7960    443.79797    108.36546 
    7970    442.39528    142.54667 
    7980    435.96929    189.75219 
    7990    436.37171    336.02893 
    8000     438.7747    434.51213 
    8010    434.88602    335.17122 
    8020    438.45597    193.91108 
    8030    439.95872    88.453511 
    8040    436.66773    125.09356 
    8050    440.22977     333.7504 
    8060    440.20171    415.24663 
    8070    438.31145     242.9716 
    8080    439.41896   -69.240401 
    8090    438.17826   -315.64172 
    8100    436.63851   -279.46051 
    8110    434.84666   -27.967997 
    8120    434.87346    185.32823 
    8130    436.91915    146.92681 
    8140    436.13381   -157.14304 
    8150    438.13418   -429.01268 
    8160    440.89956   -431.78285 
    8170    438.19594   -191.70256 
    8180    439.03829    150.22666 
    8190    439.68539    293.92305 
    8200    438.27756    118.15645 
    8210    440.00217   -188.77456 
    8220    439.43357   -385.61971 
    8230     440.5259   -269.29696 
    8240    440.15797    25.176225 
    8250     437.5139    228.46676 
    8260    440.22488    229.51405 
    8270    438.72992   -14.379929 
    8280     436.9666   -268.47907 
    8290    440.31674    -317.0221 
    8300    437.26866   -254.79381 
    8310    435.81354      -122.08 
    8320    437.05557    -34.52327 
    8330    433.62016   -128.72973 
    8340    432.57942   -293.38052 
    8350    431.04338   -412.33658 
    8360    431.50587   -383.20829 
    8370    433.78199   -251.58284 
    8380    433.39267   -158.41491 
    8390    438.04733   -94.424736 
    8400    439.00104   -87.024829 
    8410    437.36291   -53.284359 
    8420    440.79107    61.325291 
    8430    437.53672    90.879672 
    8440    437.56887    91.945426 
    8450    441.68655    100.54475 
    8460    436.97035    68.585032 
    8470    440.13416     171.5026 
    8480    443.10383    289.19114 
    8490    434.33344    235.67384 
    8500    437.98463    178.28825 
    8510    440.35758      59.0565 
    8520    430.84428   -76.846774 
    8530    434.78166    72.787737 
    8540    436.89279    288.61975 
    8550    429.19282    298.82302 
    8560    433.01652    172.78556 
    8570     436.7017   -92.422594 
    8580    432.28072   -325.31945 
    8590    435.96115   -213.03131 
    8600    439.09698    84.202681 
    8610    433.21394    202.86547 
    8620    431.36724    58.279053 
    8630    432.32849   -260.79838 
    8640    429.32115   -521.86048 
    8650    430.58636   -443.70546 
    8660    435.83215   -92.954394 
    8670    436.87598    196.52442 
    8680    437.65905    249.02673 
    8690    437.81437    52.076193 
    8700    435.14048   -236.30025 
    8710    435.45243   -323.18203 
    8720    433.83304   -144.64918 
    8730    434.25536    184.37441 
    8740    437.32601    389.43494 
    8750    434.49824    236.95259 
    8760    434.89393   -86.036232 
    8770    434.42224   -325.94669 
    8780    428.77514   -323.58623 
    8790    430.70092    -41.40541 
    8800    430.38485    188.03061 
    8810    427.39368    157.82389 
    8820    431.76107   -44.574875 
    8830    430.37026    -320.8233 
    8840    428.56055   -389.20574 
    8850    433.01561   -155.39125 
    8860    432.05462    90.847668 
    8870    432.57234    175.77533 
    8880    435.48179    43.593889 
    8890    432.76299   -214.90335 
    8900    432.14048   -309.77956 
    8910    432.73894   -165.18222 
    8920    430.73801    69.028523 
    8930    431.93837    238.67968 
    8940     434.0863    218.26153 
    8950    433.53629     56.04883 
    8960    434.99424   -33.295311 
    8970    434.76404    17.226086 
    8980    432.04291    134.24166 
    8990    431.18747    209.14406 
    9000    429.89632    154.18785 
    9010    428.66618     33.19801 
    9020    429.26436   -26.568344 
    9030      430.099    10.679267 
    9040    431.11587    100.34356 
    9050    432.50171     180.7825 
    9060    433.19807    212.33966 
    9070    434.38825    197.49831 
    9080    433.96916    127.77614 
    9090    431.82834    45.811142 
    9100    432.61471    55.542599 
    9110    431.87085    124.71172 
    9120    429.68033     161.1049 
    9130    432.88309    124.90409 
    9140     431.9023   -52.686497 
    9150    428.25415   -234.42629 
    9160    431.24115   -224.65757 
    9170    428.67213   -146.96956 
    9180    424.73639   -95.552864 
    9190    429.49106   -75.819223 
    9200    428.39092   -193.28608 
    9210    426.74732     -318.284 
    9220    431.68786   -306.77642 
    9230    430.58973   -244.00273 
    9240    428.09062   -145.45963 
    9250    429.86589   -51.934597 
    9260    430.21187   -72.377871 
    9270    427.35483   -205.94577 
    9280    427.44266   -305.99122 
    9290    430.51634   -267.45295 
    9300    428.03988   -145.53667 
    9310    427.93364    31.179312 
    9320     431.7715    142.80599 
    9330     429.1025    37.474201 
    9340    429.07727   -134.80466 
    9350    431.36817   -209.80623 
    9360    428.10036   -140.43039 
    9370    429.07602     99.04588 
    9380    429.57541    275.70944 
    9390    426.61221    203.67946 
    9400    429.89449   -23.533581 
    9410    429.71189   -303.10998 
    9420    427.12676   -401.09101 
    9430    430.61856   -187.98241 
    9440    427.86845      44.3745 
    9450    424.83278    94.148986 
    9460    427.24391    -66.37089 
    9470    425.48681   -362.17368 
    9480    425.21723    -491.3703 
    9490    427.33153   -334.92467 
    9500    427.68692   -79.954263 
    9510    429.05833     51.44687 
    9520    427.13907   -76.015847 
    9530    426.44264   -313.70799 
    9540    428.18088   -439.24761 
    9550    426.53786   -384.62894 
    9560     427.3758   -188.24596 
    9570     428.8795   -46.846515 
    9580     426.9566   -89.382103 
    9590    426.20368   -216.84756 
    9600    426.04551   -277.76259 
    9610    426.64589   -186.35351 
    9620    426.31562   -46.289404 
    9630     425.8322    11.313064 
    9640    427.33721   -25.590009 
    9650    425.57775    -110.5132 
    9660    423.43673   -96.151045 
    9670    424.52278    47.734199 
    9680    423.78835    130.84664 
    9690    423.36661    73.638919 
    9700    426.38519   -32.350248 
    9710    427.50705     -91.2258 
    9720    428.26237   -7.8634832 
    9730    429.25802     153.7503 
    9740    428.38466     210.4265 
    9750    425.75648    91.275845 
    9760    423.63301   -88.951817 
    9770    423.86851   -162.45407 
    9780    422.38675   -83.273179 
    9790    423.04556    118.47769 
    9800    425.69239    266.65904 
    9810    424.55268    181.31907 
    9820    423.27571    -52.88812 
    9830    422.92129   -232.42783 
    9840    421.43929   -213.64921 
    9850    420.27813    1.5060906 
    9860    421.78743    235.00613 
    9870    422.36569    244.11544 
    9880     421.7701     2.754878 
    9890    422.56069   -280.70176 
    9900    422.56357    -385.3917 
    9910    421.49248   -223.75236 
    9920    422.63581    70.675571 
    9930    425.53788    207.21261 
    9940    425.74443    12.068333 
    9950    427.62465   -326.47915 
    9960    429.58868   -528.72512 
    9970    425.37573   -461.59678 
    9980    423.32398   -114.66596 
    9990    421.97129    236.40937 
   10000    419.05549    310.45634 
   10010    421.35653    113.63716 
   10020    424.14226   -208.60809 
   10030    424.88384   -400.05082 
   10040    427.31571   -271.94431 
   10050     425.7423    18.285853 
   10060    422.29496    198.60932 
   10070    423.16513    110.87815 
   10080    423.56325     -229.375 
   10090    423.59846   -545.85178 
   10100    424.73076   -568.53303 
   10110    424.19419   -305.10075 
   10120    421.24831     2.249599 
   10130    420.31183    111.32771 
   10140    419.99875   -60.977152 
   10150    420.23633   -329.25445 
   10160    424.17328   -410.95919 
   10170    425.15944   -251.73133 
   10180    424.83661    49.577637 
   10190    424.25579    283.73047 
   10200    421.48909    301.68269 
   10210    420.67355    170.20932 
   10220    420.43571    17.527941 
   10230    421.28931   -22.261592 
   10240    422.32629    80.825971 
   10250    421.42139    248.45993 
   10260    421.05057    388.15787 
   10270    420.86885    394.18463 
   10280    419.29625    222.83352 
   10290    420.05594   -22.085651 
   10300    421.90123   -195.57162 
   10310    418.98293   -207.04257 
   10320    418.01292   -10.806208 
   10330    419.68866    212.09887 
   10340    417.22455    190.06646 
   10350    416.90369   -59.213071 
   10360    421.61574   -314.13462 
   10370    422.38106   -394.30436 
   10380     420.6282    -205.3615 
   10390    422.76234    139.44401 
   10400    421.31234    305.86783 
   10410    420.06966    178.80051 
   10420    421.50107   -126.21903 
   10430    420.65465   -391.99177 
   10440    420.05854    -384.7634 
   10450    417.61617   -135.77275 
   10460    416.05469    145.87791 
   10470    417.20889    223.12615 
   10480    416.00843    3.1558956 
   10490    417.50413   -280.11364 
   10500    421.16978   -380.54805 
   10510    419.50213   -250.07704 
   10520     419.7326    78.747748 
   10530    420.85649    366.16006 
   10540     417.2571    360.88131 
   10550    417.54518    114.00551 
   10560    418.88116   -200.07193 
   10570    418.68152   -327.20565 
   10580    419.69804   -130.87131 
   10590    419.84785    218.55814 
   10600    421.24702     432.9623 
   10610    419.16627    264.01104 
   10620    418.99779   -136.39946 
   10630    422.08458   -413.65635 
   10640    417.59009   -392.22989 
   10650    418.27007   -6.8114869 
   10660    420.96907    379.28692 
   10670    415.62291    345.94768 
   10680    417.59662     24.84702 
   10690    419.08621   -334.49583 
   10700    413.97874   -470.23304 
   10710    417.38535   -205.11662 
   10720    417.12904    121.74091 
   10730    412.54195    214.55357 
   10740    416.27475    92.706507 
   10750    414.86393   -205.14232 
   10760     414.2182   -380.06468 
   10770    419.24451   -247.82951 
   10780    417.74598    2.6250096 
   10790    419.69717    228.68693 
   10800    422.68663    245.72383 
   10810    418.83757    12.280309 
   10820    420.18477   -189.26854 
   10830    420.87791   -227.08336 
   10840    416.69274   -99.691291 
   10850    419.11565    157.05614 
   10860    420.48942    280.20261 
   10870    417.09497    146.77124 
   10880    418.94032   -54.395448 
   10890    420.04159   -176.01475 
   10900    415.88437   -145.57816 
   10910    415.81379    56.290257 
   10920    417.86276    235.09505 
   10930    413.01161    182.52454 
   10940    411.96672    15.663951 
   10950    416.37814    -128.9521 
   10960    413.41915   -243.05434 
   10970    413.81002   -187.01167 
   10980    420.16125   -16.260303 
   10990    417.16895   -1.2118444 
   11000    413.50001    -102.1509 
   11010    416.62608   -160.44685 
   11020    414.22393   -178.24181 
   11030     410.3582   -96.547126 
   11040    415.67755    96.355124 
   11050    417.48971    182.29066 
   11060    413.46952    121.68237 
   11070    416.53607    81.616035 
   11080     416.8887    24.631274 
   11090    410.42466   -44.372885 
   11100    411.00379     12.88426 
   11110    412.79274    83.479156 
   11120    408.68373    16.557184 
   11130     410.3611   -88.503349 
   11140     413.9244   -172.41533 
   11150      411.414   -202.84945 
   11160    411.84913   -87.740239 
   11170    414.51097    63.576937 
   11180    413.95175    79.786209 
   11190    413.64979   -30.333425 
   11200    413.72298   -168.54367 
   11210    414.44937   -204.50603 
   11220    414.70957   -102.36745 
   11230    414.87535    49.148782 
   11240    415.87654    98.433529 
   11250    415.61881   -56.066719 
   11260    415.63542   -308.55934 
   11270    414.08102   -464.52029 
   11280    413.84984   -376.91291 
   11290    414.97561   -145.22824 
   11300    412.93681   -29.229252 
   11310    414.58548   -95.066267 
   11320    416.31938    -286.7306 
   11330    412.29565   -436.67539 
   11340    412.40296   -326.36261 
   11350    413.22459   -68.995784 
   11360    409.08527    87.696453 
   11370    411.06737    109.07801 
   11380    413.74367   -23.611002 
   11390    410.31237   -202.97793 
   11400    411.61797   -176.74409 
   11410    412.30324    5.8076313 
   11420     409.6788     179.9598 
   11430     410.5105    261.25682 
   11440    412.09044    180.34443 
   11450       412.86    4.3651776 
   11460    412.32166   -126.99371 
   11470    413.86428    -100.4647 
   11480    414.72991    24.059005 
   11490     411.2347    87.253585 
   11500    413.12201    52.004007 
   11510     415.0034   -118.85772 
   11520    411.69907   -316.32462 
   11530    414.62278   -297.68549 
   11540    416.21818   -155.49866 
   11550    412.34517   -100.30611 
   11560    413.36726   -175.13528 
   11570    414.31647   -367.08388 
   11580    412.72774   -500.55598 
   11590     411.0942     -412.087 
   11600    411.17544   -161.98746 
   11610     412.1348    9.5130533 
   11620    408.39078   -94.340199 
   11630     409.1891   -302.72732 
   11640    413.63612   -391.82138 
   11650    409.52672    -316.0352 
   11660    410.05213   -23.548995 
   11670     413.8445    246.97793 
   11680    408.14154    204.55284 
   11690    407.79013    13.037764 
   11700     410.5616   -151.92364 
   11710    407.71519   -182.60665 
   11720    408.79119    37.719675 
   11730    410.93262    315.81144 
   11740    410.79673    384.22366 
   11750    410.24961    190.00558 
   11760    408.94271   -99.172824 
   11770    411.16663   -204.98693 
   11780    410.19754   -83.057372 
   11790    407.91162    173.25467 
   11800    412.92136    404.45465 
   11810     412.2004    329.00417 
   11820    408.62498    11.684511 
   11830     412.7045   -244.52895 
   11840    412.82711    -310.0069 
   11850    409.39592   -103.50459 
   11860    411.86709    270.64093 
   11870    412.67659    415.66682 
   11880    407.39781    140.73883 
   11890    407.10405   -271.10856 
   11900    410.92568   -481.21482 
   11910    409.05208   -376.97714 
   11920    409.68779   -10.630068 
   11930    412.89701    277.65783 
   11940    409.55126    158.43083 
   11950    407.82575   -234.60503 
   11960    408.59967   -584.08735 
   11970    407.71583   -635.18803 
   11980    409.38711   -324.50517 
   11990    410.42488    58.393399 
   12000    410.77026     186.1251 
   12010    410.45323   -39.625441 
   12020    407.59934   -404.00258 
   12030    407.70878   -524.00094 
   12040    407.89234   -305.52299 
   12050    406.59598    58.170981 
   12060    408.30595    305.03994 
   12070    407.48558    225.13423 
   12080     405.7481   -53.184179 
   12090    405.55085   -242.33161 
   12100    405.73647   -179.51486 
   12110    408.02033    109.95863 
   12120     407.1957     370.6685 
   12130    407.98719    429.78403 
   12140    409.89823     250.6941 
   12150    405.01415   -63.588793 
   12160    406.15763   -171.27855 
   12170    407.94288   -15.805508 
   12180     403.3807    220.86318 
   12190     407.9791    429.37878 
   12200    409.25058    347.02698 
   12210    404.16001    9.9152295 
   12220     408.4809   -206.69516 
   12230    407.33306   -219.50529 
   12240    404.14877    -15.46374 
   12250    408.57873    252.78514 
   12260    405.16768    207.16538 
   12270    404.73253   -98.784921 
   12280    407.72292   -447.23056 
   12290    403.61909   -631.83487 
   12300    407.18595   -423.45516 
   12310    407.63607   -101.46427 
   12320    402.83047    36.651336 
   12330    407.01409   -21.114568 
   12340    404.71457   -296.91401 
   12350    402.14379    -469.8453 
   12360     408.0633   -298.63128 
   12370    406.11006   -12.192375 
   12380    404.58418    235.72114 
   12390    406.85556    305.93889 
   12400    402.77419    113.79425 
   12410    401.27692   -90.333448 
   12420    402.57517   -114.99307 
   12430    403.08038    34.408972 
   12440    406.08277    247.74145 
   12450    405.20028    317.15364 
   12460    404.01254     226.0939 
   12470    403.78008    68.303299 
   12480    399.80656   -51.126081 
   12490    400.57664    11.558062 
   12500    403.42128    154.76943 
   12510    402.70499    183.84854 
   12520     403.7536    66.196632 
   12530    403.17751   -170.69571 
   12540    401.28229   -364.59204 
   12550    400.39139    -364.0705 
   12560    400.05678   -198.05671 
   12570    402.75368   -11.853519 
   12580    404.05444    1.2846814 
   12590    402.83268   -165.43101 
   12600    403.81031   -308.40407 
   12610     399.8326   -317.97349 
   12620    397.59467   -134.39074 
   12630    400.46431     102.2784 
   12640    399.50559      153.467 
   12650    403.42191     76.71658 
   12660    406.54523   -65.965766 
   12670    404.06255   -186.79659 
   12680    405.04299   -156.08999 
   12690    401.44664   -73.603203 
   12700    399.67052    31.817411 
   12710    402.03465    85.000636 
   12720    397.86564   -31.825541 
   12730    400.26992   -145.09977 
   12740    402.49937   -208.46614 
   12750    396.32713   -185.81993 
   12760    400.77291    86.620617 
   12770    402.85729    331.28047 
   12780    397.91973    324.18028 
   12790    405.00171    199.57983 
   12800    404.66583   -57.661905 
   12810    397.96408   -213.03018 
   12820    404.25416   -24.035887 
   12830    403.36157    168.06524 
   12840     398.6397     179.4419 
   12850     404.5448    72.171022 
   12860    403.93885    -210.3212 
   12870    398.35536   -467.26891 
   12880    400.30619   -425.67901 
   12890    400.15562   -189.07923 
   12900      397.011     36.01901 
   12910    398.96359    120.64951 
   12920     401.0539   -29.434244 
   12930    400.03008   -294.33009 
   12940    398.69444   -404.43623 
   12950     400.1539   -220.14678 
   12960      401.339    117.79682 
   12970    398.18451    354.96705 
   12980     400.2061    410.61376 
   12990    404.04202    253.46672 
   13000    398.93172   -32.559854 
   13010    399.30176   -96.144463 
   13020    404.07544    127.37714 
   13030    399.84883    379.27206 
   13040    399.86459     538.4461 
   13050    403.93623    453.21772 
   13060    399.16782    78.030936 
   13070    397.06131   -236.23921 
   13080    398.67622   -250.62125 
   13090    396.22056   -26.266633 
   13100    397.09231    274.56363 
   13110    399.70433    375.01766 
   13120     399.6378    155.24921 
   13130    399.53527   -198.60761 
   13140    397.77765   -409.34544 
   13150    396.83191    -270.0207 
   13160     397.3466    124.97811 
   13170    396.59024    438.20671 
   13180     397.2297    430.12311 
   13190    398.06619    102.38904 
   13200    397.14059   -266.13456 
   13210    395.99569   -334.26233 
   13220    397.76833   -25.767743 
   13230    399.41282    366.13487 
   13240    398.63656    503.53987 
   13250    401.34516    341.13586 
   13260    402.25924    8.5885872 
   13270    397.55245   -237.42607 
   13280    398.99183   -124.81881 
   13290    400.50475    199.16272 
   13300    395.94395    413.11817 
   13310    399.50746     427.6213 
   13320    403.31296    167.15385 
   13330    399.88464   -224.57126 
   13340    402.47695   -361.18611 
   13350    403.67781   -225.26387 
   13360    399.10087   -36.132725 
   13370    398.30812    40.990931 
   13380    397.85039   -124.84575 
   13390    396.15024    -429.4404 
   13400    395.47448   -612.52166 
   13410    396.76492   -543.28021 
   13420    397.48884   -350.22169 
   13430    394.99397   -233.13761 
   13440    394.94318   -215.15091 
   13450    394.67801   -258.99695 
   13460    389.84392    -289.4174 
   13470    391.34552   -176.24979 
   13480    394.56857   -31.322615 
   13490    390.97369    8.0533338 
   13500      393.691    64.752208 
   13510    397.09803    121.05954 
   13520     389.8382    99.734095 
   13530    390.52477     159.4553 
   13540    394.75284    226.49827 
   13550    388.42304    146.96144 
   13560    390.15441    96.654718 
   13570    396.42261    89.092132 
   13580    391.79796    33.579342 
   13590     392.1729    78.806446 
   13600    397.34807     157.6529 
   13610    394.09877    68.765101 
   13620    393.96285   -67.129373 
   13630    396.59096   -138.02277 
   13640    394.80971   -130.69624 
   13650    395.12473   -3.0867685 
   13660    394.49928    135.87784 
   13670    393.62572    185.73877 
   13680    395.40748     132.6751 
   13690    393.55264   -5.1658464 
   13700    393.92644   -53.111434 
   13710    396.44096    58.111842 
   13720    393.27986    201.77379 
   13730    391.60384    295.18412 
   13740    392.78452     257.0294 
   13750    390.84308    77.910524 
   13760     388.9302   -78.895992 
   13770    391.22408   -67.077602 
   13780    393.07641     66.00601 
   13790     390.8393     183.5788 
   13800    392.33562    231.51789 
   13810    395.39802    134.05914 
   13820    391.18012   -98.890124 
   13830    392.00412   -179.07854 
   13840    396.59081   -32.422014 
   13850    392.57052    131.35719 
   13860    393.77668    242.50384 
   13870     396.6603    159.14809 
   13880    391.03492   -123.41559 
   13890    390.87546   -271.89815 
   13900    391.72244   -199.51622 
   13910    389.47349   -21.020594 
   13920    391.02696    126.33663 
   13930    393.17235    78.853284 
   13940    395.24929   -125.20488 
   13950    395.68158   -313.56382 
   13960    395.11365   -322.53746 
   13970    395.85066   -142.84764 
   13980    392.61185    28.542085 
   13990    389.77986    72.036926 
   14000    392.32097   -31.709029 
   14010    392.17082   -264.76742 
   14020    390.85208    -419.2214 
   14030    393.98904   -324.34605 
   14040    395.29901   -112.66961 
   14050    392.77214   -3.6993813 
   14060    391.89645   -75.401882 
   14070    392.91133   -240.61537 
   14080    390.44971    -331.2919 
   14090    387.81743   -203.85663 
   14100    390.60325    73.508284 
   14110    388.78788    190.02805 
   14120    384.93844    74.591857 
   14130    389.21036   -87.481896 
   14140    389.07914   -246.68203 
   14150    386.28487   -294.12363 
   14160    391.66742   -164.34497 
   14170    393.20788   -90.132149 
   14180    389.60192   -183.63189 
   14190    391.34341   -317.20095 
   14200    393.30443   -404.45305 
   14210    391.64151   -379.39258 
   14220    392.53794   -199.40592 
   14230    395.23745    7.4693492 
   14240    393.40337    60.818166 
   14250    390.68626    -6.395096 
   14260    390.62698   -67.124001 
   14270    388.83543   -83.475809 
   14280    386.56036   -37.360286 
   14290    388.24563    47.045406 
   14300    389.31735    52.127128 
   14310    389.41432   -32.536268 
   14320    390.54191   -122.15348 
   14330    389.06994   -172.97431 
   14340    388.42814   -129.83789 
   14350    388.60757    -34.17131 
   14360    387.30701    29.836001 
   14370    388.41402    65.010319 
   14380    389.84994    65.136975 
   14390    388.95966    36.515112 
   14400    388.60248    21.183582 
   14410    388.97706    18.442456 
   14420    386.50051    3.1434519 
   14430    384.05133    23.736293 
   14440    385.75983    114.84661 
   14450    385.19239    164.06272 
   14460    383.74544    113.29068 
   14470     388.4422    19.429982 
   14480    388.84608   -111.57003 
   14490    387.65539   -129.86884 
   14500    393.56694    60.683527 
   14510    392.60485    206.90898 
   14520    388.68594    185.01808 
   14530     391.0026    43.745318 
   14540    386.75081   -203.02154 
   14550    383.53024   -305.54469 
   14560    386.74383   -141.16402 
   14570    384.79492     62.18324 
   14580    384.84328    139.22069 
   14590    387.15192   -21.640454 
   14600    383.81674   -355.81482 
   14610    384.29116   -486.00778 
   14620    385.55855   -265.58654 
   14630    383.26157    108.97353 
   14640    385.56712    353.81354 
   14650     386.7958    220.09106 
   14660     384.2562   -161.11748 
   14670    384.99065   -354.23903 
   14680     385.8683   -146.29603 
   14690    384.15986    304.35716 
   14700     385.1284    658.03308 
   14710    387.37974    616.00132 
   14720    386.67079    203.94368 
   14730    387.09361   -181.61115 
   14740    389.26578   -194.60613 
   14750    388.70865    136.74383 
   14760    387.32218    515.94919 
[...]
   71800      99.8381   -1159.7807   -5.3198718   -143.82822    112.56711    51.609635    52.011978    -13616.13    821.24834    1255.5889    4000.3867 
   71900    100.64839   -1063.3843     136.2477   -142.10627    112.63264    51.613653    51.989175   -13604.493     809.4297    1239.5799    3991.8688 
   72000    99.080913   -1368.4238   -152.91663   -96.155903    112.69816    51.652123    51.993875   -13577.893    827.84533    1258.2222    3973.9064 
   72100    100.93117   -1196.9545   -118.19914   -178.42509    112.76368    51.624683    52.008948   -13588.542    793.46583    1252.1405    3973.3096 
   72200    99.787779    -1178.953   -227.78434   -225.76618     112.8292    51.641576    52.003462   -13577.485    817.75796    1260.8349    3956.3233 
   72300    99.529012    -1386.803   -324.97719   -31.226536    112.89473    51.691849    51.985157   -13589.741    820.66626    1274.5731    3964.9258 
   72400     99.24088   -1040.0528   -25.922401    151.83135    112.96025    51.684775    51.953587   -13572.695    798.28224    1240.2791     4012.755 
   72500    98.694896   -1281.7423   -30.037121    -91.47493    113.02577    51.669956    51.904296   -13588.214    815.64262    1275.3312    3990.4569 
   72600    100.75998   -1235.5872   -8.6720943   -290.83934    113.09129    51.671149    51.814158   -13580.638    806.56659    1242.7036    3982.6389 
   72700    99.543531   -1030.3015   -260.66671   -69.858502    113.15681     51.73664    51.764711   -13595.454    818.96292    1252.9992    4008.6606 
   72800    99.780809   -1062.5002    233.50115    -34.65367    113.22234    51.717961     51.77628   -13586.572     815.0959    1273.1809    3985.0468 
   72900    100.16987   -1049.8604   -42.334328    292.73886    113.28786    51.720667    51.788481   -13575.762     809.8135    1251.0768    3989.7739 
   73000    99.904417   -1454.1677    -186.9352   -135.59524    113.35338    51.735515    51.820212   -13545.289    810.07896    1243.0561    3987.5999 
   73100    99.858598   -943.42534    220.83102   -185.07334     113.4189    51.700898    51.771374   -13564.096    819.82081    1256.8087    3989.0231 
   73200    101.41376   -578.90353    150.46628    41.480322    113.48443    51.641643    51.706667   -13565.128    806.64301    1245.7925    3965.1862 
   73300      100.688   -1466.7701   -248.74035   -204.05486    113.54995    51.602741    51.702619   -13591.103    814.69179    1247.5857    3995.7256 
   73400    100.52955   -1247.6767    139.49255    256.88269    113.61547    51.586561    51.702631   -13597.028    799.41976    1263.4373    3993.5437 
   73500    99.342679   -1015.0606    216.71213     143.5072    113.68099    51.573615    51.721692   -13586.116     812.4905    1259.8147    4004.8526 
   73600    99.553669   -958.61554    118.01095   -89.112705    113.74651    51.550058    51.682864   -13567.966    810.94019    1253.6617    3992.6611 
   73700    99.491292   -831.69487   -111.98488   -123.67352    113.81204    51.639552    51.634041   -13588.524    830.25575    1261.1799     3993.251 
   73800    99.517514    -1116.546    128.60553    333.47686    113.87756    51.674151    51.560047   -13606.711    829.00874    1253.9395    4026.0803 
   73900     99.69205   -1161.6343   -200.36173    437.11554    113.94308     51.65128    51.501638   -13587.011    792.25367    1300.8949    3992.4488 
   74000    101.13963   -1131.5131     376.9771   -105.15248     114.0086    51.583571    51.515958    -13594.67    803.85091    1245.6555    3999.0887 
   74100     98.59733   -867.91281    95.459818    74.847183    114.07412    51.591415    51.481366   -13572.998    821.33472      1282.58    3987.8104 
   74200    100.54189   -879.60539   -123.55087   -130.91078    114.13965    51.600583    51.487926   -13571.124    814.70561    1260.9391    3961.0878 
   74300    101.51974   -1001.1625    55.335237     223.5347    114.20517    51.577927    51.517511   -13565.838    823.32939    1234.0911    3941.0444 
   74400    99.112968   -888.03547    141.18103    109.40843    114.27069    51.528727    51.526927   -13567.601    818.90196    1269.2317         3994 
   74500    99.589581   -1202.4158   -48.500619    208.36106    114.33621    51.483478    51.532697   -13553.663    820.34691    1255.2662    3989.5882 
   74600    100.46926   -1040.2611    215.05071   -252.11698    114.40174    51.434853     51.58677   -13542.784    811.48084    1237.1885    3969.5461 
   74700    99.940019   -960.78876    3.5489437   -102.49564    114.46726    51.462581    51.592543   -13541.047    830.11689    1259.7003    3947.1397 
   74800       101.28   -942.17289   -197.09327     9.949639    114.53278    51.516301    51.579175   -13538.172    781.18963    1252.5979    3959.2144 
   74900     99.86156   -1124.0876    110.40464    165.68703     114.5983    51.522537    51.521115   -13549.665    822.93579    1252.0444    3981.0102 
   75000    100.96532   -1273.9739    140.65336     78.28872    114.66382    51.419265    51.468238   -13563.055     803.8917    1272.1454    3959.5721 
   75100    100.42072   -766.15308    61.271511    31.876364    114.72935    51.283263    51.440998   -13615.514    807.80951    1271.9765    4007.6035 
   75200     100.3507   -816.53068    48.212243    170.50754    114.79487    51.182903    51.493277    -13609.37    809.60721    1243.8567    4022.9351 
   75300    100.41414   -938.91001   -122.68989   -20.772278    114.86039    51.111622    51.540783    -13613.17    797.93809    1254.8229    4019.5436 
   75400    100.79129   -1254.0107    24.761395   -63.084936    114.92591    51.049023    51.560514   -13611.925    797.40554    1261.1961    4001.2329 
   75500    100.58583   -1072.3965    170.59523   -193.67386    114.99144    51.006077    51.563635   -13638.783    811.83012    1271.9833    4000.2848 
   75600    100.57477   -1078.8499    -145.4054    251.49008    115.05696    51.020743     51.56365   -13621.953    806.31312      1259.04    3996.1917 
   75700    99.647749   -810.55982    80.973148   -33.145659    115.12248    51.037046     51.61019   -13586.826    811.90191    1238.1524    4001.7619 
   75800    99.838654   -1261.3315   -112.53379   -161.48672      115.188    51.088691    51.627509   -13595.676    820.05282    1234.7257    4014.5593 
   75900    100.38035   -1395.7482   -132.34339   -147.43446    115.25352    51.073627    51.588096   -13583.027    812.82595    1267.0291    3975.7389 
   76000    99.658051   -1315.1622    12.183057    400.84419    115.31905    51.045978    51.543899   -13572.371    811.22481     1257.166    3989.1676 
   76100    100.43677   -927.76882      81.1533    345.19568    115.38457    51.058848    51.531272   -13576.261    805.02389    1228.7459    4012.4424 
   76200    100.29963   -898.40397    139.26263    103.78394    115.45009      51.0616     51.53996   -13573.636    808.30209     1233.602    3999.9908 
   76300    99.698604   -874.81698    110.19489    27.983892    115.51561    51.004031    51.491992   -13601.293    824.21478    1238.2539    4023.2986 
   76400    100.21238   -964.95641    366.57181    335.44781    115.58113    50.971099    51.471858   -13566.489    813.69413    1236.5885    3985.8658 
   76500    100.11177   -1135.7103   -100.68165    64.095329    115.64666    50.970918      51.5173   -13597.542    817.78927    1247.2693    4014.3669 
   76600    100.02475   -1573.2284   -294.72511   -191.06165    115.71218    50.936879    51.549203   -13586.711    832.55964    1250.3045    3993.1725 
   76700    99.457712   -1174.8017   -162.17352   -137.47256     115.7777    50.927589    51.517687   -13577.609    810.98463    1265.0267    3999.0925 
   76800    100.03569   -1040.3738   -108.09656    66.194839    115.84322    50.916739    51.523061   -13595.483    827.69031    1249.2833    4009.6372 
   76900    100.88856   -1113.3806   -87.531173    39.557777    115.90875    50.860196    51.524202   -13590.169    815.17931    1216.7466    4016.6738 
   77000    100.28443   -916.19982   -362.55497     62.96434    115.97427    50.801041    51.515837   -13582.057    833.84582    1226.8573    3992.8603 
   77100    100.16735   -1265.1119   -251.02166   -123.68264    116.03979    50.769139    51.526824   -13600.001    803.60566    1254.9799    4012.3171 
   77200    99.685566   -1380.8672   -151.89012   -160.07456    116.10531    50.748727    51.496447    -13598.36    822.14154    1267.8883    3997.8836 
   77300    100.47397   -1014.8875    8.0762759   -57.423139    116.17083    50.759907    51.462595   -13612.013    813.92834    1234.2552    4025.3799 
   77400    99.829595   -1365.4938   -136.35012    -118.0916    116.23636    50.789366    51.388388   -13592.273    813.29385    1258.5522    3992.8652 
   77500    99.445403   -1331.4061    54.236212   -84.123606    116.30188    50.801887    51.340816   -13582.391    823.14758     1252.798    3991.0906 
   77600    100.42042   -1060.9476   -135.36861    190.64909     116.3674     50.85128    51.336539   -13587.607    810.98848    1234.0953    4003.9478 
   77700    99.867661   -693.35762    99.031983    144.66296    116.43292    50.816981    51.302141   -13591.241    809.78369     1249.989    4010.9907 
   77800    99.759002    -945.4634   -61.711293   -330.61186    116.49845    50.746592    51.300933   -13611.031     809.0897    1247.8374    4042.1555 
   77900    99.953144   -912.74921    193.97988    30.470123    116.56397    50.709171    51.275646   -13603.175    807.71573     1255.125    4026.8336 
   78000    100.20693   -984.48538   -25.590625    218.46739    116.62949    50.664346    51.279646   -13626.785    797.73112    1253.8479    4048.3211 
   78100    100.62553   -1089.2621   -108.80941   -44.538779    116.69501    50.623771     51.29148   -13587.882    800.46469    1246.0415    4001.3349 
   78200    99.783509   -859.18198    143.25816    21.634291    116.76053    50.627275      51.3164   -13573.029      823.808    1235.2088    4000.4718 
   78300    101.12235   -692.64291    171.92038    6.2120714    116.82606    50.623818    51.360702   -13575.759    799.47987    1244.8768    3977.7891 
   78400    100.27078    -936.6279    123.93846    177.40379    116.89158    50.632159    51.345209   -13571.881    808.95846    1253.0305     3978.484 
   78500    100.54561   -1187.2034    -49.19745    145.48719     116.9571    50.622497    51.322602    -13577.22    799.43473    1234.3822    3993.5084 
   78600      98.9805   -1027.9099    437.10154    104.11213    117.02262    50.574655    51.246661   -13564.509    804.27752    1256.1677    4003.7144 
   78700    100.30342   -865.46799    63.333493   -159.28365    117.08815      50.5998    51.213047   -13578.657    791.83081    1241.9989    4005.8076 
   78800    100.83248   -623.22504    100.70739     257.0926    117.15367    50.572179    51.175853   -13602.764    796.55342    1244.6489    4012.1655 
   78900    99.924107   -999.41787    172.20235    143.70477    117.21919    50.545856    51.144494   -13588.433    800.26446    1252.9788    4007.4318 
   79000    99.923929   -1411.1988    96.564211     10.07152    117.28471    50.567292    51.121795   -13630.663    801.57025    1262.1698    4041.5173 
   79100    100.66165   -1136.4023   -53.012916   -45.663218    117.35023    50.558699    51.105782   -13611.403    810.46896    1240.1016    4020.0386 
   79200    99.687745   -754.20086   -42.659181   -110.82346    117.41576    50.557273    51.090011   -13599.325    808.66101    1268.4306     4005.565 
   79300    99.510466   -1058.4165   -52.678081   -340.19183    117.48128    50.571193    51.070986   -13598.063    798.70549    1239.6749    4047.3499 
   79400    100.35105   -1169.9969    219.97106    23.132025     117.5468    50.575309    51.046619   -13596.111    794.51165    1244.6155    4018.0092 
   79500    100.35442   -622.90518    251.12364    167.89237    117.61232      50.5697    51.019728     -13602.7    798.48695    1243.9433    4019.6739 
   79600    100.29882    -1116.682   -145.11515    102.84295    117.67784     50.51974     50.97481   -13625.138    808.76006    1239.2395    4036.9232 
   79700    99.353265   -1224.8063   -225.15602   -355.21371    117.74337     50.51974    50.982568   -13589.886    816.29676     1232.145    4025.6941 
   79800    100.95005   -1026.8275   0.39461865   -114.50161    117.80889    50.533625    50.981582   -13595.303    783.41659    1242.4179    4008.4508 
   79900    99.187382   -1029.5847   -5.0123236   -19.983043    117.87441    50.491247    51.011206   -13577.773    823.17252      1219.75    4023.8861 
   80000    99.753588   -1095.8712   -150.32045    170.26931    117.93993    50.476594    51.008009   -13594.205    827.48735    1229.9249    4011.3999 
   80100    100.32422   -809.15896   -206.03872   -139.81236    118.00546    50.489636    51.014985   -13606.207     804.5088    1247.3746    4011.2499 
   80200    100.94914    -1130.412   -81.376654    107.78417    118.07098    50.470639    50.962913   -13617.607     810.1687    1226.8093    4011.1655 
   80300     101.0334   -979.16234    28.641771   -121.53021     118.1365    50.417095    50.926644   -13610.107    792.71034    1224.1237    4016.4459 
   80400    100.44609   -1319.6903    69.347523   -184.17014    118.20202    50.346906    50.858768   -13613.592    806.98152    1252.7912    3998.1975 
   80500    101.18594   -1421.8061   -222.94339   -53.464734    118.26754    50.330498    50.815561   -13622.076    793.76561    1229.6276    4021.0407 
   80600    99.342091   -1138.9012   -321.18683   -91.283675    118.33307    50.366131    50.892691    -13597.95    806.58293    1257.7338    4010.8499 
   80700    98.643514   -744.38695    129.77182    37.938824    118.39859     50.29016    50.917499    -13603.18    819.08556    1272.3044    4022.7417 
   80800    99.963586   -1120.0641    211.53869   -225.26596    118.46411    50.234214    50.896935   -13619.581    808.26206    1271.5408     4016.645 
   80900    99.456927   -1369.5344   -73.163005   -127.75818    118.52963    50.208689    50.831142   -13611.189    802.74358    1263.5552    4027.5346 
   81000    101.41399   -1276.9847    123.85992     159.8246    118.59516    50.185446     50.72626   -13617.605    788.56227    1243.3646    4016.1241 
   81100    99.755587   -985.66482   -305.20365    146.58558    118.66068     50.16851    50.670782   -13626.347    810.61858    1257.0699    4036.6472 
   81200     99.40563   -1208.2321    -278.9045   -351.87111     118.7262     50.17803    50.702198   -13607.842    800.77318    1266.2217    4035.0453 
   81300    100.74996   -1214.3356    45.031807   -241.57029    118.79172    50.159684    50.734521   -13596.386    793.64049    1254.7689    4014.3069 
   81400     100.1174   -1072.0605      173.366    144.49098    118.85724    50.135974    50.762771   -13591.948    790.81353    1272.4642    4012.5424 
   81500    100.24965   -906.92103    71.323018    294.06354    118.92277    50.086613    50.812606   -13596.038    804.45687    1261.2829    4004.8039 
   81600    100.19744   -738.49158    95.734136    34.734938    118.98829    50.000632    50.793936   -13587.828    808.26608     1236.878    4021.1246 
   81700    99.095441   -1234.1221    82.867678    54.851937    119.05381    49.996898    50.735827   -13572.187    800.74837     1277.751    3993.7262 
   81800    100.47225    -821.5821    14.384026    208.60305    119.11933    50.020556    50.676885   -13589.576    804.00513    1250.6669    3989.9396 
   81900    99.591915   -1135.4172    186.95626   -24.274727    119.18486    50.073009      50.6254   -13577.681     811.0161    1259.0285    3988.3279 
   82000    100.26593   -897.95555   -90.730591   -66.628265    119.25038     50.06211     50.56716   -13596.463    800.59771    1248.6351    4002.8753 
   82100    100.24398   -856.81083   -123.74098    89.120321     119.3159    49.984205    50.528949   -13612.731    797.75983    1261.8145    4007.9485 
   82200    100.69672   -1215.1312    -178.0309   -227.83684    119.38142    49.898115    50.540498   -13632.177    782.94354    1259.6575    4014.3065 
   82300    99.298603   -928.35224   -238.03977    183.10947    119.44694     49.86501    50.528722   -13627.844    810.87448    1261.1034    4034.0664 
   82400    99.453386   -946.54787    422.24154    14.783535    119.51247     49.88078    50.544924   -13603.954    812.30109    1262.8526    4021.5408 
   82500    99.181351   -1227.7725   -5.6922281    -243.0579    119.57799    49.923856    50.528244    -13626.28    811.11393     1279.069     4038.134 
   82600    100.35131   -1192.1754    146.28041   -57.475496    119.64351    49.886734    50.474648   -13614.469    798.26249    1249.2712    4035.2857 
   82700    100.35296   -1041.2915    13.572208    54.708373    119.70903     49.92051    50.456387   -13608.446    793.24811     1242.742     4046.725 
   82800    98.794874    -1000.785   -134.29271    144.43136    119.77455    49.952053    50.442755   -13591.114    815.19281    1259.3583    4027.5982 
   82900    100.26937    -1428.435    29.802117   -235.13315    119.84008     49.93551    50.426373   -13611.381    795.18117    1250.3383    4042.6565 
   83000    100.79891   -1585.5727   -310.78097   -165.64572     119.9056    49.882923     50.41048   -13598.655    792.12614    1253.4399    4010.7538 
   83100    100.77404    -1331.885   -133.16274   -63.202528    119.97112    49.776559    50.419549   -13631.913    811.03728    1252.0018    4022.8078 
   83200    98.750075   -1260.6107   -309.02132    58.041858    120.03664    49.721062     50.42809    -13614.29     814.5302     1248.235     4064.262 
   83300    98.901732   -1374.1786   -104.40878   -431.62607    120.10217    49.716006    50.474317    -13621.98    804.93417    1286.0639    4048.0609 
   83400    98.905678   -1142.1051    238.64878   -69.173571    120.16769    49.698996    50.430448   -13613.174    795.09553    1277.3364    4063.5874 
   83500    100.66027   -1034.4228    159.82747   -28.088899    120.23321    49.699061    50.430972   -13631.118    804.85334    1259.4469     4053.676 
   83600    100.62742   -1063.8626   -237.38207    166.77134    120.29873    49.684742     50.42763   -13613.272    799.84926    1279.1258    4016.0167 
   83700    100.46489    -1050.566   -268.39662    -68.02286    120.36425    49.609815    50.399668   -13643.256    810.25844    1278.7745    4034.2122 
   83800    99.618739   -1472.6264   -169.51015   -178.28053    120.42978    49.563355    50.368707   -13636.336    801.78375    1266.8203    4061.9771 
   83900    100.11847   -1391.9866    17.106628   -269.50369     120.4953    49.520917    50.368661    -13644.88    801.43236    1260.3742    4060.8707 
   84000     100.9815   -1180.9005    182.94744   -183.59384    120.56082    49.469784    50.356565   -13630.511    799.31408     1239.362    4038.6478 
   84100     99.02033   -1265.9621    -157.2367    202.67113    120.62634    49.465719    50.371067   -13637.185    798.01281    1274.0777    4055.5745 
   84200    98.789129   -959.04888   -195.92679    426.07797    120.69187    49.471553    50.349336   -13635.951    804.41548    1254.3611    4072.8505 
   84300    100.13149   -1259.4834   -37.463976   -177.46369    120.75739    49.471775     50.34636   -13632.076    798.47367    1257.6389    4036.7981 
   84400    98.981861    -929.1672     267.7681    166.41422    120.82291    49.438406    50.307498   -13626.404    804.25649    1278.1978    4052.8569 
   84500    101.11708   -1095.9636    167.73693    206.83577    120.88843    49.398855    50.366385   -13624.588    795.11071    1247.3802    4028.3556 
   84600    100.02798   -963.00917   -182.30207    -170.2085    120.95395    49.378623    50.436772   -13607.941    800.12389    1253.7294    4032.8498 
   84700    100.17599   -1093.0997   -139.08696    85.346677    121.01948     49.34043    50.424609   -13616.492     794.5547    1255.9775    4043.8762 
   84800    9