LAMMPS (18 Jun 2019)
Total wall time: 0:00:00
